<UPF version="2.0.1">
  <PP_INFO>

 Co_ONCV_PBE-1.2.upf

 This pseudopotential file has been produced using the code
 ONCVPSP  (Optimized Norm-Conservinng Vanderbilt PSeudopotential)
 scalar-relativistic version 2.1.1, 03/26/2014 by D. R. Hamann
 The code is available through a link at URL www.mat-simresearch.com.
 Documentation with the package provides a full discription of the
 input data below.


 While it is not required under the terms of the GNU GPL, it is
 suggested that you cite D. R. Hamann, Phys. Rev. B 88, 085117 (2013)
 in any publication using these pseudopotentials.


 Copyright 2015 The Regents of the University of California
 
 This work is licensed under the Creative Commons Attribution-ShareAlike 
 4.0 International License. To view a copy of this license, visit 
 http://creativecommons.org/licenses/by-sa/4.0/ or send a letter to 
 Creative Commons, PO Box 1866, Mountain View, CA 94042, USA.
 
 This pseudopotential is part of the Schlipf-Gygi norm-conserving 
 pseudopotential library. Its construction parameters were tuned to 
 reproduce materials of a training set with very high accuracy and 
 should be suitable as a general purpose pseudopotential to treat a 
 variety of different compounds. For details of the construction and 
 testing of the pseudopotential please refer to:
 
   M. Schlipf and F. Gygi, Computer Physics Communications (2015)
   DOI: 10.1016/j.cpc.2015.05.011
   http://dx.doi.org/10.1016/j.cpc.2015.05.011
   http://www.quantum-simulation.org
 
 We kindly ask that you include this reference in all publications 
 associated to this pseudopotential.


    <PP_INPUTFILE>
# ATOM AND REFERENCE CONFIGURATION
# atsym  z    nc    nv    iexc   psfile
  Co 27.00     3     4     4      upf
#
#   n    l    f        energy (Ha)
    1    0    2.00
    2    0    2.00
    2    1    6.00
    3    0    2.00
    3    1    6.00
    4    0    2.00
    3    2    7.00
#
# PSEUDOPOTENTIAL AND OPTIMIZATION
# lmax
    2
#
#   l,   rc,     ep,   ncon, nbas, qcut
    0   2.15848  -3.76330    5    8   6.19611
    1   2.05791  -2.41210    5    8   7.48645
    2   2.18438  -0.30150    5    8   7.72578
#
# LOCAL POTENTIAL
# lloc, lpopt,  rc(5),   dvloc0
    4    5   1.91577      0.00000
#
# VANDERBILT-KLEINMAN-BYLANDER PROJECTORs
# l, nproj, debl
    0    2   3.56228
    1    2   2.87477
    2    2   1.11125
#
# MODEL CORE CHARGE
# icmod, fcfact
    0   0.00000
#
# LOG DERIVATIVE ANALYSIS
# epsh1, epsh2, depsh
   -5.00    3.00    0.02
#
# OUTPUT GRID
# rlmax, drl
    6.00    0.01
#
# TEST CONFIGURATIONS
# ncnf
    0
# nvcnf
#   n    l    f
    </PP_INPUTFILE>
  </PP_INFO>
  <!--                               -->
  <!-- END OF HUMAN READABLE SECTION -->
  <!--                               -->
    <PP_HEADER
       generated="Generated using ONCVPSP code by D. R. Hamann"
       author="Martin Schlipf and Francois Gygi"
       date="150105"
       comment=""
       element="Co"
       pseudo_type="NC"
       relativistic="scalar"
       is_ultrasoft="F"
       is_paw="F"
       is_coulomb="F"
       has_so="F"
       has_wfc="F"
       has_gipaw="F"
       core_correction="F"
       functional="PBE"
       z_valence="   17.00"
       total_psenergy="  -1.35201712299E+02"
       rho_cutoff="   6.01000000000E+00"
       l_max="2"
       l_local="-1"
       mesh_size="   602"
       number_of_wfc="4"
       number_of_proj="6"/>
 <PP_MESH>
   <PP_R type="real"  size=" 602" columns="8">
    0.0000    0.0100    0.0200    0.0300    0.0400    0.0500    0.0600    0.0700
    0.0800    0.0900    0.1000    0.1100    0.1200    0.1300    0.1400    0.1500
    0.1600    0.1700    0.1800    0.1900    0.2000    0.2100    0.2200    0.2300
    0.2400    0.2500    0.2600    0.2700    0.2800    0.2900    0.3000    0.3100
    0.3200    0.3300    0.3400    0.3500    0.3600    0.3700    0.3800    0.3900
    0.4000    0.4100    0.4200    0.4300    0.4400    0.4500    0.4600    0.4700
    0.4800    0.4900    0.5000    0.5100    0.5200    0.5300    0.5400    0.5500
    0.5600    0.5700    0.5800    0.5900    0.6000    0.6100    0.6200    0.6300
    0.6400    0.6500    0.6600    0.6700    0.6800    0.6900    0.7000    0.7100
    0.7200    0.7300    0.7400    0.7500    0.7600    0.7700    0.7800    0.7900
    0.8000    0.8100    0.8200    0.8300    0.8400    0.8500    0.8600    0.8700
    0.8800    0.8900    0.9000    0.9100    0.9200    0.9300    0.9400    0.9500
    0.9600    0.9700    0.9800    0.9900    1.0000    1.0100    1.0200    1.0300
    1.0400    1.0500    1.0600    1.0700    1.0800    1.0900    1.1000    1.1100
    1.1200    1.1300    1.1400    1.1500    1.1600    1.1700    1.1800    1.1900
    1.2000    1.2100    1.2200    1.2300    1.2400    1.2500    1.2600    1.2700
    1.2800    1.2900    1.3000    1.3100    1.3200    1.3300    1.3400    1.3500
    1.3600    1.3700    1.3800    1.3900    1.4000    1.4100    1.4200    1.4300
    1.4400    1.4500    1.4600    1.4700    1.4800    1.4900    1.5000    1.5100
    1.5200    1.5300    1.5400    1.5500    1.5600    1.5700    1.5800    1.5900
    1.6000    1.6100    1.6200    1.6300    1.6400    1.6500    1.6600    1.6700
    1.6800    1.6900    1.7000    1.7100    1.7200    1.7300    1.7400    1.7500
    1.7600    1.7700    1.7800    1.7900    1.8000    1.8100    1.8200    1.8300
    1.8400    1.8500    1.8600    1.8700    1.8800    1.8900    1.9000    1.9100
    1.9200    1.9300    1.9400    1.9500    1.9600    1.9700    1.9800    1.9900
    2.0000    2.0100    2.0200    2.0300    2.0400    2.0500    2.0600    2.0700
    2.0800    2.0900    2.1000    2.1100    2.1200    2.1300    2.1400    2.1500
    2.1600    2.1700    2.1800    2.1900    2.2000    2.2100    2.2200    2.2300
    2.2400    2.2500    2.2600    2.2700    2.2800    2.2900    2.3000    2.3100
    2.3200    2.3300    2.3400    2.3500    2.3600    2.3700    2.3800    2.3900
    2.4000    2.4100    2.4200    2.4300    2.4400    2.4500    2.4600    2.4700
    2.4800    2.4900    2.5000    2.5100    2.5200    2.5300    2.5400    2.5500
    2.5600    2.5700    2.5800    2.5900    2.6000    2.6100    2.6200    2.6300
    2.6400    2.6500    2.6600    2.6700    2.6800    2.6900    2.7000    2.7100
    2.7200    2.7300    2.7400    2.7500    2.7600    2.7700    2.7800    2.7900
    2.8000    2.8100    2.8200    2.8300    2.8400    2.8500    2.8600    2.8700
    2.8800    2.8900    2.9000    2.9100    2.9200    2.9300    2.9400    2.9500
    2.9600    2.9700    2.9800    2.9900    3.0000    3.0100    3.0200    3.0300
    3.0400    3.0500    3.0600    3.0700    3.0800    3.0900    3.1000    3.1100
    3.1200    3.1300    3.1400    3.1500    3.1600    3.1700    3.1800    3.1900
    3.2000    3.2100    3.2200    3.2300    3.2400    3.2500    3.2600    3.2700
    3.2800    3.2900    3.3000    3.3100    3.3200    3.3300    3.3400    3.3500
    3.3600    3.3700    3.3800    3.3900    3.4000    3.4100    3.4200    3.4300
    3.4400    3.4500    3.4600    3.4700    3.4800    3.4900    3.5000    3.5100
    3.5200    3.5300    3.5400    3.5500    3.5600    3.5700    3.5800    3.5900
    3.6000    3.6100    3.6200    3.6300    3.6400    3.6500    3.6600    3.6700
    3.6800    3.6900    3.7000    3.7100    3.7200    3.7300    3.7400    3.7500
    3.7600    3.7700    3.7800    3.7900    3.8000    3.8100    3.8200    3.8300
    3.8400    3.8500    3.8600    3.8700    3.8800    3.8900    3.9000    3.9100
    3.9200    3.9300    3.9400    3.9500    3.9600    3.9700    3.9800    3.9900
    4.0000    4.0100    4.0200    4.0300    4.0400    4.0500    4.0600    4.0700
    4.0800    4.0900    4.1000    4.1100    4.1200    4.1300    4.1400    4.1500
    4.1600    4.1700    4.1800    4.1900    4.2000    4.2100    4.2200    4.2300
    4.2400    4.2500    4.2600    4.2700    4.2800    4.2900    4.3000    4.3100
    4.3200    4.3300    4.3400    4.3500    4.3600    4.3700    4.3800    4.3900
    4.4000    4.4100    4.4200    4.4300    4.4400    4.4500    4.4600    4.4700
    4.4800    4.4900    4.5000    4.5100    4.5200    4.5300    4.5400    4.5500
    4.5600    4.5700    4.5800    4.5900    4.6000    4.6100    4.6200    4.6300
    4.6400    4.6500    4.6600    4.6700    4.6800    4.6900    4.7000    4.7100
    4.7200    4.7300    4.7400    4.7500    4.7600    4.7700    4.7800    4.7900
    4.8000    4.8100    4.8200    4.8300    4.8400    4.8500    4.8600    4.8700
    4.8800    4.8900    4.9000    4.9100    4.9200    4.9300    4.9400    4.9500
    4.9600    4.9700    4.9800    4.9900    5.0000    5.0100    5.0200    5.0300
    5.0400    5.0500    5.0600    5.0700    5.0800    5.0900    5.1000    5.1100
    5.1200    5.1300    5.1400    5.1500    5.1600    5.1700    5.1800    5.1900
    5.2000    5.2100    5.2200    5.2300    5.2400    5.2500    5.2600    5.2700
    5.2800    5.2900    5.3000    5.3100    5.3200    5.3300    5.3400    5.3500
    5.3600    5.3700    5.3800    5.3900    5.4000    5.4100    5.4200    5.4300
    5.4400    5.4500    5.4600    5.4700    5.4800    5.4900    5.5000    5.5100
    5.5200    5.5300    5.5400    5.5500    5.5600    5.5700    5.5800    5.5900
    5.6000    5.6100    5.6200    5.6300    5.6400    5.6500    5.6600    5.6700
    5.6800    5.6900    5.7000    5.7100    5.7200    5.7300    5.7400    5.7500
    5.7600    5.7700    5.7800    5.7900    5.8000    5.8100    5.8200    5.8300
    5.8400    5.8500    5.8600    5.8700    5.8800    5.8900    5.9000    5.9100
    5.9200    5.9300    5.9400    5.9500    5.9600    5.9700    5.9800    5.9900
    6.0000    6.0100
   </PP_R>
   <PP_RAB type="real"  size=" 602" columns="8">
    0.0100    0.0100    0.0100    0.0100    0.0100    0.0100    0.0100    0.0100
    0.0100    0.0100    0.0100    0.0100    0.0100    0.0100    0.0100    0.0100
    0.0100    0.0100    0.0100    0.0100    0.0100    0.0100    0.0100    0.0100
    0.0100    0.0100    0.0100    0.0100    0.0100    0.0100    0.0100    0.0100
    0.0100    0.0100    0.0100    0.0100    0.0100    0.0100    0.0100    0.0100
    0.0100    0.0100    0.0100    0.0100    0.0100    0.0100    0.0100    0.0100
    0.0100    0.0100    0.0100    0.0100    0.0100    0.0100    0.0100    0.0100
    0.0100    0.0100    0.0100    0.0100    0.0100    0.0100    0.0100    0.0100
    0.0100    0.0100    0.0100    0.0100    0.0100    0.0100    0.0100    0.0100
    0.0100    0.0100    0.0100    0.0100    0.0100    0.0100    0.0100    0.0100
    0.0100    0.0100    0.0100    0.0100    0.0100    0.0100    0.0100    0.0100
    0.0100    0.0100    0.0100    0.0100    0.0100    0.0100    0.0100    0.0100
    0.0100    0.0100    0.0100    0.0100    0.0100    0.0100    0.0100    0.0100
    0.0100    0.0100    0.0100    0.0100    0.0100    0.0100    0.0100    0.0100
    0.0100    0.0100    0.0100    0.0100    0.0100    0.0100    0.0100    0.0100
    0.0100    0.0100    0.0100    0.0100    0.0100    0.0100    0.0100    0.0100
    0.0100    0.0100    0.0100    0.0100    0.0100    0.0100    0.0100    0.0100
    0.0100    0.0100    0.0100    0.0100    0.0100    0.0100    0.0100    0.0100
    0.0100    0.0100    0.0100    0.0100    0.0100    0.0100    0.0100    0.0100
    0.0100    0.0100    0.0100    0.0100    0.0100    0.0100    0.0100    0.0100
    0.0100    0.0100    0.0100    0.0100    0.0100    0.0100    0.0100    0.0100
    0.0100    0.0100    0.0100    0.0100    0.0100    0.0100    0.0100    0.0100
    0.0100    0.0100    0.0100    0.0100    0.0100    0.0100    0.0100    0.0100
    0.0100    0.0100    0.0100    0.0100    0.0100    0.0100    0.0100    0.0100
    0.0100    0.0100    0.0100    0.0100    0.0100    0.0100    0.0100    0.0100
    0.0100    0.0100    0.0100    0.0100    0.0100    0.0100    0.0100    0.0100
    0.0100    0.0100    0.0100    0.0100    0.0100    0.0100    0.0100    0.0100
    0.0100    0.0100    0.0100    0.0100    0.0100    0.0100    0.0100    0.0100
    0.0100    0.0100    0.0100    0.0100    0.0100    0.0100    0.0100    0.0100
    0.0100    0.0100    0.0100    0.0100    0.0100    0.0100    0.0100    0.0100
    0.0100    0.0100    0.0100    0.0100    0.0100    0.0100    0.0100    0.0100
    0.0100    0.0100    0.0100    0.0100    0.0100    0.0100    0.0100    0.0100
    0.0100    0.0100    0.0100    0.0100    0.0100    0.0100    0.0100    0.0100
    0.0100    0.0100    0.0100    0.0100    0.0100    0.0100    0.0100    0.0100
    0.0100    0.0100    0.0100    0.0100    0.0100    0.0100    0.0100    0.0100
    0.0100    0.0100    0.0100    0.0100    0.0100    0.0100    0.0100    0.0100
    0.0100    0.0100    0.0100    0.0100    0.0100    0.0100    0.0100    0.0100
    0.0100    0.0100    0.0100    0.0100    0.0100    0.0100    0.0100    0.0100
    0.0100    0.0100    0.0100    0.0100    0.0100    0.0100    0.0100    0.0100
    0.0100    0.0100    0.0100    0.0100    0.0100    0.0100    0.0100    0.0100
    0.0100    0.0100    0.0100    0.0100    0.0100    0.0100    0.0100    0.0100
    0.0100    0.0100    0.0100    0.0100    0.0100    0.0100    0.0100    0.0100
    0.0100    0.0100    0.0100    0.0100    0.0100    0.0100    0.0100    0.0100
    0.0100    0.0100    0.0100    0.0100    0.0100    0.0100    0.0100    0.0100
    0.0100    0.0100    0.0100    0.0100    0.0100    0.0100    0.0100    0.0100
    0.0100    0.0100    0.0100    0.0100    0.0100    0.0100    0.0100    0.0100
    0.0100    0.0100    0.0100    0.0100    0.0100    0.0100    0.0100    0.0100
    0.0100    0.0100    0.0100    0.0100    0.0100    0.0100    0.0100    0.0100
    0.0100    0.0100    0.0100    0.0100    0.0100    0.0100    0.0100    0.0100
    0.0100    0.0100    0.0100    0.0100    0.0100    0.0100    0.0100    0.0100
    0.0100    0.0100    0.0100    0.0100    0.0100    0.0100    0.0100    0.0100
    0.0100    0.0100    0.0100    0.0100    0.0100    0.0100    0.0100    0.0100
    0.0100    0.0100    0.0100    0.0100    0.0100    0.0100    0.0100    0.0100
    0.0100    0.0100    0.0100    0.0100    0.0100    0.0100    0.0100    0.0100
    0.0100    0.0100    0.0100    0.0100    0.0100    0.0100    0.0100    0.0100
    0.0100    0.0100    0.0100    0.0100    0.0100    0.0100    0.0100    0.0100
    0.0100    0.0100    0.0100    0.0100    0.0100    0.0100    0.0100    0.0100
    0.0100    0.0100    0.0100    0.0100    0.0100    0.0100    0.0100    0.0100
    0.0100    0.0100    0.0100    0.0100    0.0100    0.0100    0.0100    0.0100
    0.0100    0.0100    0.0100    0.0100    0.0100    0.0100    0.0100    0.0100
    0.0100    0.0100    0.0100    0.0100    0.0100    0.0100    0.0100    0.0100
    0.0100    0.0100    0.0100    0.0100    0.0100    0.0100    0.0100    0.0100
    0.0100    0.0100    0.0100    0.0100    0.0100    0.0100    0.0100    0.0100
    0.0100    0.0100    0.0100    0.0100    0.0100    0.0100    0.0100    0.0100
    0.0100    0.0100    0.0100    0.0100    0.0100    0.0100    0.0100    0.0100
    0.0100    0.0100    0.0100    0.0100    0.0100    0.0100    0.0100    0.0100
    0.0100    0.0100    0.0100    0.0100    0.0100    0.0100    0.0100    0.0100
    0.0100    0.0100    0.0100    0.0100    0.0100    0.0100    0.0100    0.0100
    0.0100    0.0100    0.0100    0.0100    0.0100    0.0100    0.0100    0.0100
    0.0100    0.0100    0.0100    0.0100    0.0100    0.0100    0.0100    0.0100
    0.0100    0.0100    0.0100    0.0100    0.0100    0.0100    0.0100    0.0100
    0.0100    0.0100    0.0100    0.0100    0.0100    0.0100    0.0100    0.0100
    0.0100    0.0100    0.0100    0.0100    0.0100    0.0100    0.0100    0.0100
    0.0100    0.0100    0.0100    0.0100    0.0100    0.0100    0.0100    0.0100
    0.0100    0.0100    0.0100    0.0100    0.0100    0.0100    0.0100    0.0100
    0.0100    0.0100
   </PP_RAB>
 </PP_MESH>
  <PP_LOCAL type="real"  size=" 602" columns="4">
   -4.3199309936e+01   -4.3198794609e+01   -4.3197213325e+01   -4.3194460178e+01
   -4.3190358659e+01   -4.3184661651e+01   -4.3177051436e+01   -4.3167139692e+01
   -4.3154467491e+01   -4.3138505302e+01   -4.3118652989e+01   -4.3094350548e+01
   -4.3065474927e+01   -4.3032094302e+01   -4.2994346519e+01   -4.2952414737e+01
   -4.2906507189e+01   -4.2856841478e+01   -4.2803633113e+01   -4.2747087695e+01
   -4.2687395992e+01   -4.2624731219e+01   -4.2559247888e+01   -4.2491081726e+01
   -4.2420350294e+01   -4.2347154010e+01   -4.2271577378e+01   -4.2193690303e+01
   -4.2113549394e+01   -4.2031199207e+01   -4.1946673401e+01   -4.1859995792e+01
   -4.1771181318e+01   -4.1680236911e+01   -4.1587162246e+01   -4.1491950496e+01
   -4.1394588931e+01   -4.1295059561e+01   -4.1193339678e+01   -4.1089402413e+01
   -4.0983217277e+01   -4.0874750705e+01   -4.0763966615e+01   -4.0650826987e+01
   -4.0535292473e+01   -4.0417323048e+01   -4.0296878687e+01   -4.0173920087e+01
   -4.0048409414e+01   -3.9920311066e+01   -3.9789592500e+01   -3.9656225002e+01
   -3.9520184415e+01   -3.9381452019e+01   -3.9240015111e+01   -3.9095867662e+01
   -3.8949010983e+01   -3.8799453950e+01   -3.8647213647e+01   -3.8492315264e+01
   -3.8334792447e+01   -3.8174687145e+01   -3.8012049305e+01   -3.7846936958e+01
   -3.7679415412e+01   -3.7509556917e+01   -3.7337440253e+01   -3.7163149845e+01
   -3.6986775140e+01   -3.6808410050e+01   -3.6628152138e+01   -3.6446101909e+01
   -3.6262362173e+01   -3.6077037398e+01   -3.5890233153e+01   -3.5702055531e+01
   -3.5512610670e+01   -3.5322004332e+01   -3.5130341523e+01   -3.4937726176e+01
   -3.4744260876e+01   -3.4550046630e+01   -3.4355182684e+01   -3.4159766365e+01
   -3.3963892959e+01   -3.3767655607e+01   -3.3571145230e+01   -3.3374450456e+01
   -3.3177657566e+01   -3.2980850442e+01   -3.2784110523e+01   -3.2587516763e+01
   -3.2391145578e+01   -3.2195070809e+01   -3.1999363665e+01   -3.1804092673e+01
   -3.1609323621e+01   -3.1415119546e+01   -3.1221540608e+01   -3.1028643928e+01
   -3.0836483679e+01   -3.0645110960e+01   -3.0454573722e+01   -3.0264916731e+01
   -3.0076181641e+01   -2.9888406337e+01   -2.9701625482e+01   -2.9515870293e+01
   -2.9331168594e+01   -2.9147544838e+01   -2.8965019417e+01   -2.8783609495e+01
   -2.8603328803e+01   -2.8424188137e+01   -2.8246194012e+01   -2.8069350206e+01
   -2.7893657620e+01   -2.7719114425e+01   -2.7545715493e+01   -2.7373453766e+01
   -2.7202320365e+01   -2.7032304104e+01   -2.6863392571e+01   -2.6695572494e+01
   -2.6528829674e+01   -2.6363149757e+01   -2.6198518518e+01   -2.6034922013e+01
   -2.5872347586e+01   -2.5710783396e+01   -2.5550219080e+01   -2.5390646727e+01
   -2.5232059454e+01   -2.5074453255e+01   -2.4917826731e+01   -2.4762179406e+01
   -2.4607515119e+01   -2.4453838912e+01   -2.4301157859e+01   -2.4149482369e+01
   -2.3998823207e+01   -2.3849194144e+01   -2.3700609699e+01   -2.3553085493e+01
   -2.3406638396e+01   -2.3261285308e+01   -2.3117043633e+01   -2.2973930341e+01
   -2.2831962239e+01   -2.2691154582e+01   -2.2551522831e+01   -2.2413078957e+01
   -2.2275835831e+01   -2.2139801575e+01   -2.2004984628e+01   -2.1871389347e+01
   -2.1739018678e+01   -2.1607872920e+01   -2.1477949257e+01   -2.1349243829e+01
   -2.1221748475e+01   -2.1095455317e+01   -2.0970351925e+01   -2.0846426862e+01
   -2.0723665009e+01   -2.0602052178e+01   -2.0481572411e+01   -2.0362209899e+01
   -2.0243949655e+01   -2.0126775626e+01   -2.0010675243e+01   -1.9895633673e+01
   -1.9781641624e+01   -1.9668686820e+01   -1.9556763423e+01   -1.9445862690e+01
   -1.9335981818e+01   -1.9227115994e+01   -1.9119264663e+01   -1.9012426621e+01
   -1.8906602695e+01   -1.8801794233e+01   -1.8698002752e+01   -1.8595230514e+01
   -1.8493479296e+01   -1.8392750362e+01   -1.8293045536e+01   -1.8194363414e+01
   -1.8096705282e+01   -1.8000066713e+01   -1.7904446238e+01   -1.7809837740e+01
   -1.7716235189e+01   -1.7623631527e+01   -1.7532016684e+01   -1.7441382579e+01
   -1.7351716728e+01   -1.7263009183e+01   -1.7175246633e+01   -1.7088416432e+01
   -1.7002505253e+01   -1.6917498274e+01   -1.6833381820e+01   -1.6750140238e+01
   -1.6667758657e+01   -1.6586221809e+01   -1.6505514267e+01   -1.6425620674e+01
   -1.6346526089e+01   -1.6268214989e+01   -1.6190673015e+01   -1.6113885599e+01
   -1.6037838020e+01   -1.5962517683e+01   -1.5887910198e+01   -1.5814003757e+01
   -1.5740786561e+01   -1.5668245778e+01   -1.5596372525e+01   -1.5525155665e+01
   -1.5454585878e+01   -1.5384654978e+01   -1.5315353491e+01   -1.5246673702e+01
   -1.5178607353e+01   -1.5111146176e+01   -1.5044282291e+01   -1.4978007333e+01
   -1.4912313654e+01   -1.4847193911e+01   -1.4782640208e+01   -1.4718645556e+01
   -1.4655202707e+01   -1.4592304196e+01   -1.4529943466e+01   -1.4468113478e+01
   -1.4406807343e+01   -1.4346018745e+01   -1.4285740897e+01   -1.4225967421e+01
   -1.4166692235e+01   -1.4107908812e+01   -1.4049611224e+01   -1.3991793621e+01
   -1.3934449737e+01   -1.3877574036e+01   -1.3821160900e+01   -1.3765204323e+01
   -1.3709699110e+01   -1.3654639874e+01   -1.3600020871e+01   -1.3545837195e+01
   -1.3492083694e+01   -1.3438754879e+01   -1.3385846092e+01   -1.3333352417e+01
   -1.3281268619e+01   -1.3229590243e+01   -1.3178312612e+01   -1.3127430744e+01
   -1.3076940348e+01   -1.3026836985e+01   -1.2977115926e+01   -1.2927773006e+01
   -1.2878804026e+01   -1.2830204511e+01   -1.2781970384e+01   -1.2734097689e+01
   -1.2686582204e+01   -1.2639419908e+01   -1.2592607085e+01   -1.2546139770e+01
   -1.2500013970e+01   -1.2454226201e+01   -1.2408772759e+01   -1.2363649657e+01
   -1.2318853635e+01   -1.2274381162e+01   -1.2230228499e+01   -1.2186392344e+01
   -1.2142869415e+01   -1.2099656232e+01   -1.2056749418e+01   -1.2014145937e+01
   -1.1971842572e+01   -1.1929835857e+01   -1.1888122988e+01   -1.1846700900e+01
   -1.1805566369e+01   -1.1764716471e+01   -1.1724148394e+01   -1.1683859177e+01
   -1.1643845746e+01   -1.1604105532e+01   -1.1564635752e+01   -1.1525433451e+01
   -1.1486496012e+01   -1.1447820870e+01   -1.1409405336e+01   -1.1371246594e+01
   -1.1333342324e+01   -1.1295689997e+01   -1.1258286943e+01   -1.1221130725e+01
   -1.1184219040e+01   -1.1147549476e+01   -1.1111119401e+01   -1.1074926712e+01
   -1.1038969123e+01   -1.1003244265e+01   -1.0967749769e+01   -1.0932483608e+01
   -1.0897443590e+01   -1.0862627387e+01   -1.0828032900e+01   -1.0793658135e+01
   -1.0759501003e+01   -1.0725559230e+01   -1.0691830948e+01   -1.0658314202e+01
   -1.0625006991e+01   -1.0591907129e+01   -1.0559012919e+01   -1.0526322458e+01
   -1.0493833806e+01   -1.0461544950e+01   -1.0429454247e+01   -1.0397559886e+01
   -1.0365859989e+01   -1.0334352691e+01   -1.0303036408e+01   -1.0271909413e+01
   -1.0240969899e+01   -1.0210216120e+01   -1.0179646555e+01   -1.0149259559e+01
   -1.0119053402e+01   -1.0089026427e+01   -1.0059177185e+01   -1.0029504106e+01
   -1.0000005545e+01   -9.9706799085e+00   -9.9415258229e+00   -9.9125417908e+00
   -9.8837262580e+00   -9.8550776702e+00   -9.8265947338e+00   -9.7982760213e+00
   -9.7701200732e+00   -9.7421253528e+00   -9.7142906511e+00   -9.6866146071e+00
   -9.6590958601e+00   -9.6317328738e+00   -9.6045245239e+00   -9.5774695140e+00
   -9.5505665465e+00   -9.5238141882e+00   -9.4972112817e+00   -9.4707566315e+00
   -9.4444490006e+00   -9.4182870649e+00   -9.3922696142e+00   -9.3663955571e+00
   -9.3406637144e+00   -9.3150728772e+00   -9.2896217657e+00   -9.2643093939e+00
   -9.2391346375e+00   -9.2140963720e+00   -9.1891933428e+00   -9.1644245614e+00
   -9.1397889908e+00   -9.1152855590e+00   -9.0909131344e+00   -9.0666706186e+00
   -9.0425570928e+00   -9.0185715349e+00   -8.9947129229e+00   -8.9709800979e+00
   -8.9473721960e+00   -8.9238882624e+00   -8.9005273227e+00   -8.8772883490e+00
   -8.8541703334e+00   -8.8311724485e+00   -8.8082937653e+00   -8.7855333547e+00
   -8.7628901753e+00   -8.7403634035e+00   -8.7179521923e+00   -8.6956556558e+00
   -8.6734728930e+00   -8.6514029073e+00   -8.6294449839e+00   -8.6075982783e+00
   -8.5858619460e+00   -8.5642350844e+00   -8.5427168356e+00   -8.5213064810e+00
   -8.5000032157e+00   -8.4788062344e+00   -8.4577146418e+00   -8.4367276950e+00
   -8.4158446778e+00   -8.3950648226e+00   -8.3743873616e+00   -8.3538114152e+00
   -8.3333363321e+00   -8.3129614050e+00   -8.2926859022e+00   -8.2725090917e+00
   -8.2524301166e+00   -8.2324483951e+00   -8.2125632363e+00   -8.1927739425e+00
   -8.1730798136e+00   -8.1534800284e+00   -8.1339740475e+00   -8.1145612055e+00
   -8.0952408372e+00   -8.0760122742e+00   -8.0568747327e+00   -8.0378277005e+00
   -8.0188705432e+00   -8.0000026267e+00   -7.9812233168e+00   -7.9625318596e+00
   -7.9439277653e+00   -7.9254104326e+00   -7.9069792568e+00   -7.8886336332e+00
   -7.8703728530e+00   -7.8521964221e+00   -7.8341037813e+00   -7.8160943540e+00
   -7.7981675638e+00   -7.7803227522e+00   -7.7625594047e+00   -7.7448770096e+00
   -7.7272750171e+00   -7.7097528777e+00   -7.6923099886e+00   -7.6749458001e+00
   -7.6576598524e+00   -7.6404516214e+00   -7.6233205831e+00   -7.6062661958e+00
   -7.5892878611e+00   -7.5723851747e+00   -7.5555576369e+00   -7.5388047481e+00
   -7.5221260087e+00   -7.5055208317e+00   -7.4889887991e+00   -7.4725294584e+00
   -7.4561423330e+00   -7.4398269468e+00   -7.4235827833e+00   -7.4074093448e+00
   -7.3913062463e+00   -7.3752730334e+00   -7.3593092522e+00   -7.3434144485e+00
   -7.3275880764e+00   -7.3118297777e+00   -7.2961391333e+00   -7.2805157101e+00
   -7.2649590752e+00   -7.2494687625e+00   -7.2340443073e+00   -7.2186853675e+00
   -7.2033915302e+00   -7.1881623828e+00   -7.1729975124e+00   -7.1578964361e+00
   -7.1428587926e+00   -7.1278842197e+00   -7.1129723239e+00   -7.0981227116e+00
   -7.0833349893e+00   -7.0686086660e+00   -7.0539434634e+00   -7.0393390063e+00
   -7.0247949195e+00   -7.0103108277e+00   -6.9958863322e+00   -6.9815210121e+00
   -6.9672145825e+00   -6.9529666858e+00   -6.9387769642e+00   -6.9246450599e+00
   -6.9105705761e+00   -6.8965531449e+00   -6.8825924809e+00   -6.8686882431e+00
   -6.8548400902e+00   -6.8410476813e+00   -6.8273106279e+00   -6.8136285988e+00
   -6.8000013141e+00   -6.7864284485e+00   -6.7729096769e+00   -6.7594446740e+00
   -6.7460330658e+00   -6.7326745424e+00   -6.7193688351e+00   -6.7061156340e+00
   -6.6929146290e+00   -6.6797655102e+00   -6.6666679231e+00   -6.6536215649e+00
   -6.6406261839e+00   -6.6276814846e+00   -6.6147871714e+00   -6.6019429488e+00
   -6.5891484877e+00   -6.5764034781e+00   -6.5637076910e+00   -6.5510608446e+00
   -6.5384626571e+00   -6.5259128466e+00   -6.5134111145e+00   -6.5009571313e+00
   -6.4885506951e+00   -6.4761915372e+00   -6.4638793889e+00   -6.4516139815e+00
   -6.4393950464e+00   -6.4272222388e+00   -6.4150953723e+00   -6.4030141958e+00
   -6.3909784533e+00   -6.3789878885e+00   -6.3670422453e+00   -6.3551412195e+00
   -6.3432845775e+00   -6.3314721074e+00   -6.3197035650e+00   -6.3079787060e+00
   -6.2962972861e+00   -6.2846590464e+00   -6.2730636963e+00   -6.2615110658e+00
   -6.2500009221e+00   -6.2385330325e+00   -6.2271071640e+00   -6.2157230837e+00
   -6.2043805057e+00   -6.1930792342e+00   -6.1818190707e+00   -6.1705997929e+00
   -6.1594211790e+00   -6.1482830070e+00   -6.1371850450e+00   -6.1261270176e+00
   -6.1151087775e+00   -6.1041301130e+00   -6.0931908124e+00   -6.0822906641e+00
   -6.0714294563e+00   -6.0606069421e+00   -6.0498229121e+00   -6.0390772019e+00
   -6.0283696100e+00   -6.0176999345e+00   -6.0070679735e+00   -5.9964735254e+00
   -5.9859163345e+00   -5.9753962423e+00   -5.9649130737e+00   -5.9544666364e+00
   -5.9440567380e+00   -5.9336831861e+00   -5.9233457882e+00   -5.9130442867e+00
   -5.9027785592e+00   -5.8925484258e+00   -5.8823537031e+00   -5.8721942077e+00
   -5.8620697562e+00   -5.8519801608e+00   -5.8419251798e+00   -5.8319047012e+00
   -5.8219185501e+00   -5.8119665515e+00   -5.8020485308e+00   -5.7921643128e+00
   -5.7823137168e+00   -5.7724965147e+00   -5.7627125995e+00   -5.7529618044e+00
   -5.7432439626e+00   -5.7335589075e+00   -5.7239064723e+00   -5.7142864880e+00
   -5.7046987285e+00   -5.6951430965e+00   -5.6856194331e+00   -5.6761275792e+00
   -5.6666673760e+00   -5.6572386644e+00
  </PP_LOCAL>
 <PP_NONLOCAL>
   <PP_BETA.1
       type="real"
       size=" 602"
       columns="4"
       index="1"
       angular_momentum="0"
       cutoff_radius_index=" 222"
       cutoff_radius="    2.2100000000E+00" >
    0.0000000000E+00   -3.9392696921E-02   -7.8745485250E-02   -1.1801852043E-01
   -1.5717208583E-01   -1.9616665629E-01   -2.3496296118E-01   -2.7352204688E-01
   -3.1180533838E-01   -3.4977469998E-01   -3.8739249492E-01   -4.2462164373E-01
   -4.6142568122E-01   -4.9776881197E-01   -5.3361596415E-01   -5.6893284165E-01
   -6.0368597426E-01   -6.3784276595E-01   -6.7137154099E-01   -7.0424158797E-01
   -7.3642320155E-01   -7.6788772184E-01   -7.9860757147E-01   -8.2855629014E-01
   -8.5770856669E-01   -8.8604026862E-01   -9.1352846912E-01   -9.4015147141E-01
   -9.6588883045E-01   -9.9072137219E-01   -1.0146312101E+00   -1.0376017592E+00
   -1.0596177473E+00   -1.0806652238E+00   -1.1007315665E+00   -1.1198054848E+00
   -1.1378770217E+00   -1.1549375525E+00   -1.1709797819E+00   -1.1859977384E+00
   -1.1999867666E+00   -1.2129435178E+00   -1.2248659380E+00   -1.2357532543E+00
   -1.2456059597E+00   -1.2544257957E+00   -1.2622157332E+00   -1.2689799525E+00
   -1.2747238210E+00   -1.2794538705E+00   -1.2831777713E+00   -1.2859043075E+00
   -1.2876433512E+00   -1.2884058306E+00   -1.2882037055E+00   -1.2870499359E+00
   -1.2849584492E+00   -1.2819441149E+00   -1.2780227042E+00   -1.2732108669E+00
   -1.2675260911E+00   -1.2609866724E+00   -1.2536116865E+00   -1.2454209398E+00
   -1.2364349517E+00   -1.2266749153E+00   -1.2161626520E+00   -1.2049205906E+00
   -1.1929717330E+00   -1.1803396057E+00   -1.1670482333E+00   -1.1531221053E+00
   -1.1385861394E+00   -1.1234656516E+00   -1.1077863067E+00   -1.0915740943E+00
   -1.0748552939E+00   -1.0576564385E+00   -1.0400042800E+00   -1.0219257540E+00
   -1.0034479458E+00   -9.8459805532E-01   -9.6540336277E-01   -9.4589119430E-01
   -9.2608888754E-01   -9.0602375735E-01   -8.8572306161E-01   -8.6521396712E-01