<UPF version="2.0.1">
  <PP_INFO>

 Fe_ONCV_PBE-1.2.upf

 This pseudopotential file has been produced using the code
 ONCVPSP  (Optimized Norm-Conservinng Vanderbilt PSeudopotential)
 scalar-relativistic version 2.1.1, 03/26/2014 by D. R. Hamann
 The code is available through a link at URL www.mat-simresearch.com.
 Documentation with the package provides a full discription of the
 input data below.


 While it is not required under the terms of the GNU GPL, it is
 suggested that you cite D. R. Hamann, Phys. Rev. B 88, 085117 (2013)
 in any publication using these pseudopotentials.


 Copyright 2015 The Regents of the University of California
 
 This work is licensed under the Creative Commons Attribution-ShareAlike 
 4.0 International License. To view a copy of this license, visit 
 http://creativecommons.org/licenses/by-sa/4.0/ or send a letter to 
 Creative Commons, PO Box 1866, Mountain View, CA 94042, USA.
 
 This pseudopotential is part of the Schlipf-Gygi norm-conserving 
 pseudopotential library. Its construction parameters were tuned to 
 reproduce materials of a training set with very high accuracy and 
 should be suitable as a general purpose pseudopotential to treat a 
 variety of different compounds. For details of the construction and 
 testing of the pseudopotential please refer to:
 
   M. Schlipf and F. Gygi, Computer Physics Communications (2015)
   DOI: 10.1016/j.cpc.2015.05.011
   http://dx.doi.org/10.1016/j.cpc.2015.05.011
   http://www.quantum-simulation.org
 
 We kindly ask that you include this reference in all publications 
 associated to this pseudopotential.


    <PP_INPUTFILE>
# ATOM AND REFERENCE CONFIGURATION
# atsym  z    nc    nv    iexc   psfile
  Fe 26.00     3     4     4      upf
#
#   n    l    f        energy (Ha)
    1    0    2.00
    2    0    2.00
    2    1    6.00
    3    0    2.00
    3    1    6.00
    4    0    2.00
    3    2    6.00
#
# PSEUDOPOTENTIAL AND OPTIMIZATION
# lmax
    2
#
#   l,   rc,     ep,   ncon, nbas, qcut
    0   2.08667  -3.45509    5    8   6.68986
    1   2.11172  -2.20653    5    8   7.45338
    2   2.06193  -0.27580    5    8   8.55864
#
# LOCAL POTENTIAL
# lloc, lpopt,  rc(5),   dvloc0
    4    5   1.87426      0.00000
#
# VANDERBILT-KLEINMAN-BYLANDER PROJECTORs
# l, nproj, debl
    0    2   3.26061
    1    2   2.97009
    2    2   1.24375
#
# MODEL CORE CHARGE
# icmod, fcfact
    0   0.00000
#
# LOG DERIVATIVE ANALYSIS
# epsh1, epsh2, depsh
   -5.00    3.00    0.02
#
# OUTPUT GRID
# rlmax, drl
    6.00    0.01
#
# TEST CONFIGURATIONS
# ncnf
    0
# nvcnf
#   n    l    f
    </PP_INPUTFILE>
  </PP_INFO>
  <!--                               -->
  <!-- END OF HUMAN READABLE SECTION -->
  <!--                               -->
    <PP_HEADER
       generated="Generated using ONCVPSP code by D. R. Hamann"
       author="Martin Schlipf and Francois Gygi"
       date="150105"
       comment=""
       element="Fe"
       pseudo_type="NC"
       relativistic="scalar"
       is_ultrasoft="F"
       is_paw="F"
       is_coulomb="F"
       has_so="F"
       has_wfc="F"
       has_gipaw="F"
       core_correction="F"
       functional="PBE"
       z_valence="   16.00"
       total_psenergy="  -1.18017023654E+02"
       rho_cutoff="   6.01000000000E+00"
       l_max="2"
       l_local="-1"
       mesh_size="   602"
       number_of_wfc="4"
       number_of_proj="6"/>
 <PP_MESH>
   <PP_R type="real"  size=" 602" columns="8">
    0.0000    0.0100    0.0200    0.0300    0.0400    0.0500    0.0600    0.0700
    0.0800    0.0900    0.1000    0.1100    0.1200    0.1300    0.1400    0.1500
    0.1600    0.1700    0.1800    0.1900    0.2000    0.2100    0.2200    0.2300
    0.2400    0.2500    0.2600    0.2700    0.2800    0.2900    0.3000    0.3100
    0.3200    0.3300    0.3400    0.3500    0.3600    0.3700    0.3800    0.3900
    0.4000    0.4100    0.4200    0.4300    0.4400    0.4500    0.4600    0.4700
    0.4800    0.4900    0.5000    0.5100    0.5200    0.5300    0.5400    0.5500
    0.5600    0.5700    0.5800    0.5900    0.6000    0.6100    0.6200    0.6300
    0.6400    0.6500    0.6600    0.6700    0.6800    0.6900    0.7000    0.7100
    0.7200    0.7300    0.7400    0.7500    0.7600    0.7700    0.7800    0.7900
    0.8000    0.8100    0.8200    0.8300    0.8400    0.8500    0.8600    0.8700
    0.8800    0.8900    0.9000    0.9100    0.9200    0.9300    0.9400    0.9500
    0.9600    0.9700    0.9800    0.9900    1.0000    1.0100    1.0200    1.0300
    1.0400    1.0500    1.0600    1.0700    1.0800    1.0900    1.1000    1.1100
    1.1200    1.1300    1.1400    1.1500    1.1600    1.1700    1.1800    1.1900
    1.2000    1.2100    1.2200    1.2300    1.2400    1.2500    1.2600    1.2700
    1.2800    1.2900    1.3000    1.3100    1.3200    1.3300    1.3400    1.3500
    1.3600    1.3700    1.3800    1.3900    1.4000    1.4100    1.4200    1.4300
    1.4400    1.4500    1.4600    1.4700    1.4800    1.4900    1.5000    1.5100
    1.5200    1.5300    1.5400    1.5500    1.5600    1.5700    1.5800    1.5900
    1.6000    1.6100    1.6200    1.6300    1.6400    1.6500    1.6600    1.6700
    1.6800    1.6900    1.7000    1.7100    1.7200    1.7300    1.7400    1.7500
    1.7600    1.7700    1.7800    1.7900    1.8000    1.8100    1.8200    1.8300
    1.8400    1.8500    1.8600    1.8700    1.8800    1.8900    1.9000    1.9100
    1.9200    1.9300    1.9400    1.9500    1.9600    1.9700    1.9800    1.9900
    2.0000    2.0100    2.0200    2.0300    2.0400    2.0500    2.0600    2.0700
    2.0800    2.0900    2.1000    2.1100    2.1200    2.1300    2.1400    2.1500
    2.1600    2.1700    2.1800    2.1900    2.2000    2.2100    2.2200    2.2300
    2.2400    2.2500    2.2600    2.2700    2.2800    2.2900    2.3000    2.3100
    2.3200    2.3300    2.3400    2.3500    2.3600    2.3700    2.3800    2.3900
    2.4000    2.4100    2.4200    2.4300    2.4400    2.4500    2.4600    2.4700
    2.4800    2.4900    2.5000    2.5100    2.5200    2.5300    2.5400    2.5500
    2.5600    2.5700    2.5800    2.5900    2.6000    2.6100    2.6200    2.6300
    2.6400    2.6500    2.6600    2.6700    2.6800    2.6900    2.7000    2.7100
    2.7200    2.7300    2.7400    2.7500    2.7600    2.7700    2.7800    2.7900
    2.8000    2.8100    2.8200    2.8300    2.8400    2.8500    2.8600    2.8700
    2.8800    2.8900    2.9000    2.9100    2.9200    2.9300    2.9400    2.9500
    2.9600    2.9700    2.9800    2.9900    3.0000    3.0100    3.0200    3.0300
    3.0400    3.0500    3.0600    3.0700    3.0800    3.0900    3.1000    3.1100
    3.1200    3.1300    3.1400    3.1500    3.1600    3.1700    3.1800    3.1900
    3.2000    3.2100    3.2200    3.2300    3.2400    3.2500    3.2600    3.2700
    3.2800    3.2900    3.3000    3.3100    3.3200    3.3300    3.3400    3.3500
    3.3600    3.3700    3.3800    3.3900    3.4000    3.4100    3.4200    3.4300
    3.4400    3.4500    3.4600    3.4700    3.4800    3.4900    3.5000    3.5100
    3.5200    3.5300    3.5400    3.5500    3.5600    3.5700    3.5800    3.5900
    3.6000    3.6100    3.6200    3.6300    3.6400    3.6500    3.6600    3.6700
    3.6800    3.6900    3.7000    3.7100    3.7200    3.7300    3.7400    3.7500
    3.7600    3.7700    3.7800    3.7900    3.8000    3.8100    3.8200    3.8300
    3.8400    3.8500    3.8600    3.8700    3.8800    3.8900    3.9000    3.9100
    3.9200    3.9300    3.9400    3.9500    3.9600    3.9700    3.9800    3.9900
    4.0000    4.0100    4.0200    4.0300    4.0400    4.0500    4.0600    4.0700
    4.0800    4.0900    4.1000    4.1100    4.1200    4.1300    4.1400    4.1500
    4.1600    4.1700    4.1800    4.1900    4.2000    4.2100    4.2200    4.2300
    4.2400    4.2500    4.2600    4.2700    4.2800    4.2900    4.3000    4.3100
    4.3200    4.3300    4.3400    4.3500    4.3600    4.3700    4.3800    4.3900
    4.4000    4.4100    4.4200    4.4300    4.4400    4.4500    4.4600    4.4700
    4.4800    4.4900    4.5000    4.5100    4.5200    4.5300    4.5400    4.5500
    4.5600    4.5700    4.5800    4.5900    4.6000    4.6100    4.6200    4.6300
    4.6400    4.6500    4.6600    4.6700    4.6800    4.6900    4.7000    4.7100
    4.7200    4.7300    4.7400    4.7500    4.7600    4.7700    4.7800    4.7900
    4.8000    4.8100    4.8200    4.8300    4.8400    4.8500    4.8600    4.8700
    4.8800    4.8900    4.9000    4.9100    4.9200    4.9300    4.9400    4.9500
    4.9600    4.9700    4.9800    4.9900    5.0000    5.0100    5.0200    5.0300
    5.0400    5.0500    5.0600    5.0700    5.0800    5.0900    5.1000    5.1100
    5.1200    5.1300    5.1400    5.1500    5.1600    5.1700    5.1800    5.1900
    5.2000    5.2100    5.2200    5.2300    5.2400    5.2500    5.2600    5.2700
    5.2800    5.2900    5.3000    5.3100    5.3200    5.3300    5.3400    5.3500
    5.3600    5.3700    5.3800    5.3900    5.4000    5.4100    5.4200    5.4300
    5.4400    5.4500    5.4600    5.4700    5.4800    5.4900    5.5000    5.5100
    5.5200    5.5300    5.5400    5.5500    5.5600    5.5700    5.5800    5.5900
    5.6000    5.6100    5.6200    5.6300    5.6400    5.6500    5.6600    5.6700
    5.6800    5.6900    5.7000    5.7100    5.7200    5.7300    5.7400    5.7500
    5.7600    5.7700    5.7800    5.7900    5.8000    5.8100    5.8200    5.8300
    5.8400    5.8500    5.8600    5.8700    5.8800    5.8900    5.9000    5.9100
    5.9200    5.9300    5.9400    5.9500    5.9600    5.9700    5.9800    5.9900
    6.0000    6.0100
   </PP_R>
   <PP_RAB type="real"  size=" 602" columns="8">
    0.0100    0.0100    0.0100    0.0100    0.0100    0.0100    0.0100    0.0100
    0.0100    0.0100    0.0100    0.0100    0.0100    0.0100    0.0100    0.0100
    0.0100    0.0100    0.0100    0.0100    0.0100    0.0100    0.0100    0.0100
    0.0100    0.0100    0.0100    0.0100    0.0100    0.0100    0.0100    0.0100
    0.0100    0.0100    0.0100    0.0100    0.0100    0.0100    0.0100    0.0100
    0.0100    0.0100    0.0100    0.0100    0.0100    0.0100    0.0100    0.0100
    0.0100    0.0100    0.0100    0.0100    0.0100    0.0100    0.0100    0.0100
    0.0100    0.0100    0.0100    0.0100    0.0100    0.0100    0.0100    0.0100
    0.0100    0.0100    0.0100    0.0100    0.0100    0.0100    0.0100    0.0100
    0.0100    0.0100    0.0100    0.0100    0.0100    0.0100    0.0100    0.0100
    0.0100    0.0100    0.0100    0.0100    0.0100    0.0100    0.0100    0.0100
    0.0100    0.0100    0.0100    0.0100    0.0100    0.0100    0.0100    0.0100
    0.0100    0.0100    0.0100    0.0100    0.0100    0.0100    0.0100    0.0100
    0.0100    0.0100    0.0100    0.0100    0.0100    0.0100    0.0100    0.0100
    0.0100    0.0100    0.0100    0.0100    0.0100    0.0100    0.0100    0.0100
    0.0100    0.0100    0.0100    0.0100    0.0100    0.0100    0.0100    0.0100
    0.0100    0.0100    0.0100    0.0100    0.0100    0.0100    0.0100    0.0100
    0.0100    0.0100    0.0100    0.0100    0.0100    0.0100    0.0100    0.0100
    0.0100    0.0100    0.0100    0.0100    0.0100    0.0100    0.0100    0.0100
    0.0100    0.0100    0.0100    0.0100    0.0100    0.0100    0.0100    0.0100
    0.0100    0.0100    0.0100    0.0100    0.0100    0.0100    0.0100    0.0100
    0.0100    0.0100    0.0100    0.0100    0.0100    0.0100    0.0100    0.0100
    0.0100    0.0100    0.0100    0.0100    0.0100    0.0100    0.0100    0.0100
    0.0100    0.0100    0.0100    0.0100    0.0100    0.0100    0.0100    0.0100
    0.0100    0.0100    0.0100    0.0100    0.0100    0.0100    0.0100    0.0100
    0.0100    0.0100    0.0100    0.0100    0.0100    0.0100    0.0100    0.0100
    0.0100    0.0100    0.0100    0.0100    0.0100    0.0100    0.0100    0.0100
    0.0100    0.0100    0.0100    0.0100    0.0100    0.0100    0.0100    0.0100
    0.0100    0.0100    0.0100    0.0100    0.0100    0.0100    0.0100    0.0100
    0.0100    0.0100    0.0100    0.0100    0.0100    0.0100    0.0100    0.0100
    0.0100    0.0100    0.0100    0.0100    0.0100    0.0100    0.0100    0.0100
    0.0100    0.0100    0.0100    0.0100    0.0100    0.0100    0.0100    0.0100
    0.0100    0.0100    0.0100    0.0100    0.0100    0.0100    0.0100    0.0100
    0.0100    0.0100    0.0100    0.0100    0.0100    0.0100    0.0100    0.0100
    0.0100    0.0100    0.0100    0.0100    0.0100    0.0100    0.0100    0.0100
    0.0100    0.0100    0.0100    0.0100    0.0100    0.0100    0.0100    0.0100
    0.0100    0.0100    0.0100    0.0100    0.0100    0.0100    0.0100    0.0100
    0.0100    0.0100    0.0100    0.0100    0.0100    0.0100    0.0100    0.0100
    0.0100    0.0100    0.0100    0.0100    0.0100    0.0100    0.0100    0.0100
    0.0100    0.0100    0.0100    0.0100    0.0100    0.0100    0.0100    0.0100
    0.0100    0.0100    0.0100    0.0100    0.0100    0.0100    0.0100    0.0100
    0.0100    0.0100    0.0100    0.0100    0.0100    0.0100    0.0100    0.0100
    0.0100    0.0100    0.0100    0.0100    0.0100    0.0100    0.0100    0.0100
    0.0100    0.0100    0.0100    0.0100    0.0100    0.0100    0.0100    0.0100
    0.0100    0.0100    0.0100    0.0100    0.0100    0.0100    0.0100    0.0100
    0.0100    0.0100    0.0100    0.0100    0.0100    0.0100    0.0100    0.0100
    0.0100    0.0100    0.0100    0.0100    0.0100    0.0100    0.0100    0.0100
    0.0100    0.0100    0.0100    0.0100    0.0100    0.0100    0.0100    0.0100
    0.0100    0.0100    0.0100    0.0100    0.0100    0.0100    0.0100    0.0100
    0.0100    0.0100    0.0100    0.0100    0.0100    0.0100    0.0100    0.0100
    0.0100    0.0100    0.0100    0.0100    0.0100    0.0100    0.0100    0.0100
    0.0100    0.0100    0.0100    0.0100    0.0100    0.0100    0.0100    0.0100
    0.0100    0.0100    0.0100    0.0100    0.0100    0.0100    0.0100    0.0100
    0.0100    0.0100    0.0100    0.0100    0.0100    0.0100    0.0100    0.0100
    0.0100    0.0100    0.0100    0.0100    0.0100    0.0100    0.0100    0.0100
    0.0100    0.0100    0.0100    0.0100    0.0100    0.0100    0.0100    0.0100
    0.0100    0.0100    0.0100    0.0100    0.0100    0.0100    0.0100    0.0100
    0.0100    0.0100    0.0100    0.0100    0.0100    0.0100    0.0100    0.0100
    0.0100    0.0100    0.0100    0.0100    0.0100    0.0100    0.0100    0.0100
    0.0100    0.0100    0.0100    0.0100    0.0100    0.0100    0.0100    0.0100
    0.0100    0.0100    0.0100    0.0100    0.0100    0.0100    0.0100    0.0100
    0.0100    0.0100    0.0100    0.0100    0.0100    0.0100    0.0100    0.0100
    0.0100    0.0100    0.0100    0.0100    0.0100    0.0100    0.0100    0.0100
    0.0100    0.0100    0.0100    0.0100    0.0100    0.0100    0.0100    0.0100
    0.0100    0.0100    0.0100    0.0100    0.0100    0.0100    0.0100    0.0100
    0.0100    0.0100    0.0100    0.0100    0.0100    0.0100    0.0100    0.0100
    0.0100    0.0100    0.0100    0.0100    0.0100    0.0100    0.0100    0.0100
    0.0100    0.0100    0.0100    0.0100    0.0100    0.0100    0.0100    0.0100
    0.0100    0.0100    0.0100    0.0100    0.0100    0.0100    0.0100    0.0100
    0.0100    0.0100    0.0100    0.0100    0.0100    0.0100    0.0100    0.0100
    0.0100    0.0100    0.0100    0.0100    0.0100    0.0100    0.0100    0.0100
    0.0100    0.0100    0.0100    0.0100    0.0100    0.0100    0.0100    0.0100
    0.0100    0.0100    0.0100    0.0100    0.0100    0.0100    0.0100    0.0100
    0.0100    0.0100    0.0100    0.0100    0.0100    0.0100    0.0100    0.0100
    0.0100    0.0100    0.0100    0.0100    0.0100    0.0100    0.0100    0.0100
    0.0100    0.0100
   </PP_RAB>
 </PP_MESH>
  <PP_LOCAL type="real"  size=" 602" columns="4">
   -4.1209707721e+01   -4.1209133105e+01   -4.1207381491e+01   -4.1204369585e+01
   -4.1199958564e+01   -4.1193954077e+01   -4.1186106241e+01   -4.1176109647e+01
   -4.1163603353e+01   -4.1148170890e+01   -4.1129340261e+01   -4.1106656214e+01
   -4.1079944657e+01   -4.1049168039e+01   -4.1014351092e+01   -4.0975566331e+01
   -4.0932920430e+01   -4.0886542329e+01   -4.0836573460e+01   -4.0783160114e+01
   -4.0726447765e+01   -4.0666577068e+01   -4.0603681213e+01   -4.0537884316e+01
   -4.0469300601e+01   -4.0398034110e+01   -4.0324178798e+01   -4.0247818845e+01
   -4.0169029105e+01   -4.0087875604e+01   -4.0004416042e+01   -3.9918700268e+01
   -3.9830770710e+01   -3.9740662742e+01   -3.9648404982e+01   -3.9554019570e+01
   -3.9457522332e+01   -3.9358922959e+01   -3.9258225143e+01   -3.9155426660e+01
   -3.9050519516e+01   -3.8943490078e+01   -3.8834319253e+01   -3.8722982740e+01
   -3.8609451355e+01   -3.8493691466e+01   -3.8375665554e+01   -3.8255332907e+01
   -3.8132650461e+01   -3.8007573771e+01   -3.7880058164e+01   -3.7750059979e+01
   -3.7617537907e+01   -3.7482454490e+01   -3.7344777435e+01   -3.7204481219e+01
   -3.7061548279e+01   -3.6915970358e+01   -3.6767749450e+01   -3.6616898767e+01
   -3.6463443002e+01   -3.6307419102e+01   -3.6148875591e+01   -3.5987872875e+01
   -3.5824482347e+01   -3.5658785404e+01   -3.5490872855e+01   -3.5320843460e+01
   -3.5148802650e+01   -3.4974861221e+01   -3.4799134200e+01   -3.4621739340e+01
   -3.4442796009e+01   -3.4262424107e+01   -3.4080743119e+01   -3.3897871259e+01
   -3.3713924783e+01   -3.3529017459e+01   -3.3343260140e+01   -3.3156760451e+01
   -3.2969622590e+01   -3.2781947191e+01   -3.2593831281e+01   -3.2405368268e+01
   -3.2216647981e+01   -3.2027756730e+01   -3.1838777390e+01   -3.1649789477e+01
   -3.1460869242e+01   -3.1272089742e+01   -3.1083520915e+01   -3.0895229635e+01
   -3.0707279760e+01   -3.0519732161e+01   -3.0332644739e+01   -3.0146072440e+01
   -2.9960067318e+01   -2.9774678349e+01   -2.9589951509e+01   -2.9405929787e+01
   -2.9222653135e+01   -2.9040158448e+01   -2.8858479556e+01   -2.8677647404e+01
   -2.8497689445e+01   -2.8318630238e+01   -2.8140491301e+01   -2.7963291167e+01
   -2.7787045706e+01   -2.7611767375e+01   -2.7437466129e+01   -2.7264149346e+01
   -2.7091822154e+01   -2.6920487073e+01   -2.6750144565e+01   -2.6580793403e+01
   -2.6412430924e+01   -2.6245052788e+01   -2.6078653802e+01   -2.5913228118e+01
   -2.5748769342e+01   -2.5585270978e+01   -2.5422726792e+01   -2.5261130711e+01
   -2.5100477738e+01   -2.4940763775e+01   -2.4781985432e+01   -2.4624141321e+01
   -2.4467231399e+01   -2.4311256554e+01   -2.4156220364e+01   -2.4002127636e+01
   -2.3848984278e+01   -2.3696798963e+01   -2.3545581009e+01   -2.3395341245e+01
   -2.3246092184e+01   -2.3097846677e+01   -2.2950619000e+01   -2.2804423695e+01
   -2.2659275743e+01   -2.2515190239e+01   -2.2372182177e+01   -2.2230266174e+01
   -2.2089456036e+01   -2.1949765386e+01   -2.1811205743e+01   -2.1673788885e+01
   -2.1537523761e+01   -2.1402418992e+01   -2.1268481209e+01   -2.1135715228e+01
   -2.1004125250e+01   -2.0873712293e+01   -2.0744478094e+01   -2.0616420519e+01
   -2.0489538451e+01   -2.0363827854e+01   -2.0239285130e+01   -2.0115905006e+01
   -1.9993682321e+01   -1.9872611164e+01   -1.9752685817e+01   -1.9633900334e+01
   -1.9516249300e+01   -1.9399727286e+01   -1.9284329760e+01   -1.9170052228e+01
   -1.9056891276e+01   -1.8944843558e+01   -1.8833906678e+01   -1.8724078393e+01
   -1.8615356974e+01   -1.8507740953e+01   -1.8401228790e+01   -1.8295819198e+01
   -1.8191510350e+01   -1.8088300342e+01   -1.7986186673e+01   -1.7885165937e+01
   -1.7785234689e+01   -1.7686387178e+01   -1.7588618845e+01   -1.7491920944e+01
   -1.7396287625e+01   -1.7301707232e+01   -1.7208171167e+01   -1.7115666202e+01
   -1.7024180016e+01   -1.6933698630e+01   -1.6844207075e+01   -1.6755690699e+01
   -1.6668133494e+01   -1.6581520252e+01   -1.6495834515e+01   -1.6411060277e+01
   -1.6327181303e+01   -1.6244181223e+01   -1.6162043903e+01   -1.6080753555e+01
   -1.6000293779e+01   -1.5920650013e+01   -1.5841806414e+01   -1.5763748970e+01
   -1.5686463737e+01   -1.5609936505e+01   -1.5534155896e+01   -1.5459108384e+01
   -1.5384783624e+01   -1.5311170755e+01   -1.5238258939e+01   -1.5166038761e+01
   -1.5094499913e+01   -1.5023633018e+01   -1.4953428406e+01   -1.4883876460e+01
   -1.4814968653e+01   -1.4746695742e+01   -1.4679049236e+01   -1.4612020633e+01
   -1.4545601149e+01   -1.4479782936e+01   -1.4414557591e+01   -1.4349917140e+01
   -1.4285854015e+01   -1.4222360102e+01   -1.4159428184e+01   -1.4097050829e+01
   -1.4035220413e+01   -1.3973930176e+01   -1.3913172862e+01   -1.3852941487e+01
   -1.3793229523e+01   -1.3734029961e+01   -1.3675336396e+01   -1.3617142518e+01
   -1.3559441575e+01   -1.3502227673e+01   -1.3445494687e+01   -1.3389236214e+01
   -1.3333446719e+01   -1.3278120271e+01   -1.3223250887e+01   -1.3168833260e+01
   -1.3114861694e+01   -1.3061330582e+01   -1.3008234836e+01   -1.2955568998e+01
   -1.2903327785e+01   -1.2851506332e+01   -1.2800099416e+01   -1.2749102035e+01
   -1.2698509542e+01   -1.2648316953e+01   -1.2598519502e+01   -1.2549112762e+01
   -1.2500091986e+01   -1.2451452605e+01   -1.2403190412e+01   -1.2355300897e+01
   -1.2307779652e+01   -1.2260622686e+01   -1.2213825731e+01   -1.2167384500e+01
   -1.2121295222e+01   -1.2075553869e+01   -1.2030156246e+01   -1.1985098798e+01
   -1.1940377716e+01   -1.1895988935e+01   -1.1851929046e+01   -1.1808194440e+01
   -1.1764781285e+01   -1.1721686186e+01   -1.1678905766e+01   -1.1636436433e+01
   -1.1594274777e+01   -1.1552417647e+01   -1.1510861698e+01   -1.1469603480e+01
   -1.1428640065e+01   -1.1387968308e+01   -1.1347584846e+01   -1.1307486821e+01
   -1.1267671281e+01   -1.1228135104e+01   -1.1188875332e+01   -1.1149889246e+01
   -1.1111173975e+01   -1.1072726442e+01   -1.1034544153e+01   -1.0996624380e+01
   -1.0958964250e+01   -1.0921561151e+01   -1.0884412588e+01   -1.0847515937e+01
   -1.0810868421e+01   -1.0774467770e+01   -1.0738311507e+01   -1.0702397022e+01
   -1.0666721922e+01   -1.0631283951e+01   -1.0596080745e+01   -1.0561109728e+01
   -1.0526368849e+01   -1.0491855861e+01   -1.0457568433e+01   -1.0423504278e+01
   -1.0389661396e+01   -1.0356037638e+01   -1.0322630707e+01   -1.0289438598e+01
   -1.0256459336e+01   -1.0223690873e+01   -1.0191130959e+01   -1.0158777832e+01
   -1.0126629545e+01   -1.0094684101e+01   -1.0062939448e+01   -1.0031393886e+01
   -1.0000045555e+01   -9.9688925067e+00   -9.9379328777e+00   -9.9071650151e+00
   -9.8765871440e+00   -9.8461973761e+00   -9.8159940056e+00   -9.7859754299e+00
   -9.7561399568e+00   -9.7264857634e+00   -9.6970112732e+00   -9.6677149395e+00
   -9.6385951489e+00   -9.6096501497e+00   -9.5808784671e+00   -9.5522786166e+00
   -9.5238490599e+00   -9.4955881213e+00   -9.4674944025e+00   -9.4395664868e+00
   -9.4118029077e+00   -9.3842020703e+00   -9.3567626286e+00   -9.3294832397e+00
   -9.3023625054e+00   -9.2753989161e+00   -9.2485911558e+00   -9.2219379604e+00
   -9.1954379968e+00   -9.1690898457e+00   -9.1428921999e+00   -9.1168438785e+00
   -9.0909436107e+00   -9.0651900722e+00   -9.0395819450e+00   -9.0141181353e+00
   -8.9887974312e+00   -8.9636186086e+00   -8.9385803216e+00   -8.9136815651e+00
   -8.8889211839e+00   -8.8642980229e+00   -8.8398107993e+00   -8.8154584923e+00
   -8.7912400356e+00   -8.7671543275e+00   -8.7432001933e+00   -8.7193765409e+00
   -8.6956824070e+00   -8.6721167417e+00   -8.6486784838e+00   -8.6253664561e+00
   -8.6021797984e+00   -8.5791175095e+00   -8.5561785884e+00   -8.5333619379e+00
   -8.5106666247e+00   -8.4880917513e+00   -8.4656363631e+00   -8.4432994848e+00
   -8.4210800627e+00   -8.3989773124e+00   -8.3769903238e+00   -8.3551181870e+00
   -8.3333599058e+00   -8.3117146210e+00   -8.2901815248e+00   -8.2687597496e+00
   -8.2474484278e+00   -8.2262465550e+00   -8.2051534385e+00   -8.1841682526e+00
   -8.1632901699e+00   -8.1425183164e+00   -8.1218518324e+00   -8.1012900211e+00
   -8.0808320938e+00   -8.0604772619e+00   -8.0402246525e+00   -8.0200735319e+00
   -8.0000231999e+00   -7.9800729047e+00   -7.9602218942e+00   -7.9404693053e+00
   -7.9208145073e+00   -7.9012568029e+00   -7.8817954753e+00   -7.8624298038e+00
   -7.8431589537e+00   -7.8239823637e+00   -7.8048993502e+00   -7.7859092299e+00
   -7.7670113008e+00   -7.7482047960e+00   -7.7294891700e+00   -7.7108637712e+00
   -7.6923279480e+00   -7.6738810234e+00   -7.6555222799e+00   -7.6372511932e+00
   -7.6190671421e+00   -7.6009695054e+00   -7.5829576373e+00   -7.5650308514e+00
   -7.5471886505e+00   -7.5294304422e+00   -7.5117556343e+00   -7.4941636178e+00
   -7.4766537211e+00   -7.4592254788e+00   -7.4418783263e+00   -7.4246116990e+00
   -7.4074250300e+00   -7.3903176468e+00   -7.3732891209e+00   -7.3563389140e+00
   -7.3394664877e+00   -7.3226713036e+00   -7.3059527309e+00   -7.2893103252e+00
   -7.2727435922e+00   -7.2562520185e+00   -7.2398350910e+00   -7.2234922317e+00
   -7.2072229600e+00   -7.1910268321e+00   -7.1749033585e+00   -7.1588520499e+00
   -7.1428723868e+00   -7.1269638393e+00   -7.1111260173e+00   -7.0953584543e+00
   -7.0796606838e+00   -7.0640322392e+00   -7.0484725605e+00   -7.0329812839e+00
   -7.0175579745e+00   -7.0022021875e+00   -6.9869134779e+00   -6.9716913529e+00
   -6.9565353708e+00   -6.9414451618e+00   -6.9264203017e+00   -6.9114603664e+00
   -6.8965649319e+00   -6.8817334794e+00   -6.8669656946e+00   -6.8522611768e+00
   -6.8376195215e+00   -6.8230403245e+00   -6.8085231422e+00   -6.7940675580e+00
   -6.7796732450e+00   -6.7653398175e+00   -6.7510668902e+00   -6.7368540775e+00
   -6.7227009217e+00   -6.7086071000e+00   -6.6945722678e+00   -6.6805960573e+00
   -6.6666781012e+00   -6.6528180262e+00   -6.6390153852e+00   -6.6252699138e+00
   -6.6115812613e+00   -6.5979490775e+00   -6.5843730118e+00   -6.5708526875e+00
   -6.5573877207e+00   -6.5439778415e+00   -6.5306227158e+00   -6.5173220096e+00
   -6.5040753887e+00   -6.4908824791e+00   -6.4777429443e+00   -6.4646565149e+00
   -6.4516228721e+00   -6.4386416975e+00   -6.4257126726e+00   -6.4128354322e+00
   -6.4000096719e+00   -6.3872351281e+00   -6.3745114973e+00   -6.3618384756e+00
   -6.3492157595e+00   -6.3366429981e+00   -6.3241199047e+00   -6.3116462274e+00
   -6.2992216768e+00   -6.2868459632e+00   -6.2745187971e+00   -6.2622398474e+00
   -6.2500088315e+00   -6.2378255145e+00   -6.2256896203e+00   -6.2136008729e+00
   -6.2015589962e+00   -6.1895636836e+00   -6.1776146441e+00   -6.1657116646e+00
   -6.1538544818e+00   -6.1420428327e+00   -6.1302764541e+00   -6.1185550686e+00
   -6.1068783649e+00   -6.0952461563e+00   -6.0836581917e+00   -6.0721142204e+00
   -6.0606139912e+00   -6.0491572535e+00   -6.0377436873e+00   -6.0263731134e+00
   -6.0150453000e+00   -6.0037600079e+00   -5.9925169979e+00   -5.9813160307e+00
   -5.9701568253e+00   -5.9590391567e+00   -5.9479628302e+00   -5.9369276178e+00
   -5.9259332915e+00   -5.9149796230e+00   -5.9040663749e+00   -5.8931932664e+00
   -5.8823601433e+00   -5.8715667881e+00   -5.8608129835e+00   -5.8500985118e+00
   -5.8394231557e+00   -5.8287866528e+00   -5.8181888097e+00   -5.8076294461e+00
   -5.7971083545e+00   -5.7866253276e+00   -5.7761801582e+00   -5.7657726356e+00
   -5.7554024902e+00   -5.7450695901e+00   -5.7347737376e+00   -5.7245147351e+00
   -5.7142923849e+00   -5.7041064893e+00   -5.6939568241e+00   -5.6838431796e+00
   -5.6737654093e+00   -5.6637233247e+00   -5.6537167374e+00   -5.6437454588e+00
   -5.6338093006e+00   -5.6239080310e+00   -5.6140414867e+00   -5.6042095115e+00
   -5.5944119259e+00   -5.5846485501e+00   -5.5749192045e+00   -5.5652237093e+00
   -5.5555618314e+00   -5.5459334399e+00   -5.5363383750e+00   -5.5267764652e+00
   -5.5172475395e+00   -5.5077514263e+00   -5.4982879544e+00   -5.4888568942e+00
   -5.4794581351e+00   -5.4700915185e+00   -5.4607568811e+00   -5.4514540597e+00
   -5.4421828908e+00   -5.4329432112e+00   -5.4237347996e+00   -5.4145575539e+00
   -5.4054113220e+00   -5.3962959482e+00   -5.3872112769e+00   -5.3781571523e+00
   -5.3691334186e+00   -5.3601398678e+00   -5.3511763947e+00   -5.3422428589e+00
   -5.3333391119e+00   -5.3244650053e+00
  </PP_LOCAL>
 <PP_NONLOCAL>
   <PP_BETA.1
       type="real"
       size=" 602"
       columns="4"
       index="1"
       angular_momentum="0"
       cutoff_radius_index=" 216"
       cutoff_radius="    2.1500000000E+00" >
    0.0000000000E+00    4.7602896530E-02    9.5144980836E-02    1.4256518351E-01
    1.8980192433E-01    2.3679286571E-01    2.8347467666E-01    3.2978281074E-01
    3.7565130112E-01    4.2101257602E-01    4.6579729734E-01    5.0993422537E-01
    5.5335011208E-01    5.9596962520E-01    6.3771530537E-01    6.7850755785E-01
    7.1826468053E-01    7.5690292918E-01    7.9433662101E-01    8.3047827693E-01
    8.6523880264E-01    8.9852770872E-01    9.3025336876E-01    9.6032331512E-01
    9.8864457056E-01    1.0151240157E+00    1.0396687875E+00    1.0621867111E+00
    1.0825867575E+00    1.1007795281E+00    1.1166777622E+00    1.1301968633E+00
    1.1412554389E+00    1.1497758583E+00    1.1556848155E+00    1.1589138878E+00
    1.1594001165E+00    1.1570865604E+00    1.1519228429E+00    1.1438657158E+00
    1.1328795647E+00    1.1189369176E+00    1.1020189221E+00    1.0821157933E+00
    1.0592272273E+00    1.0333627768E+00    1.0045421850E+00    9.7279567433E-01
    9.3816417393E-01    9.0069954329E-01    8.6046468333E-01    8.1753360568E-01
    7.7199146513E-01    7.2393454876E-01    6.7347010793E-01    6.2071627086E-01
    5.6580175701E-01    5.0886562488E-01    4.5005689937E-01    3.8953417110E-01
    3.2746511842E-01    2.6402595692E-01    1.9940089514E-01    1.3378142358E-01
    6.7365642838E-02    3.5759057511E-04   -6.7033697030E-02   -1.3459494351E-01
   -2.0210947881E-01   -2.6935806497E-01   -3.3612014055E-01   -4.0217448785E-01
   -4.6730029143E-01   -5.3127812891E-01   -5.9389088459E-01   -6.5492496418E-01
   -7.1417117114E-01   -7.7142564139E-01   -8.2649085408E-01   -8.7917658161E-01
   -9.2930081274E-01   -9.7669064335E-01   -1.0211831294E+00   -1.0626260966E+00
   -1.1008789026E+00   -1.1358131463E+00   -1.1673133192E+00   -1.1952773971E+00