<UPF version="2.0.1">
  <PP_INFO>

 Mn_ONCV_PBE-1.2.upf

 This pseudopotential file has been produced using the code
 ONCVPSP  (Optimized Norm-Conservinng Vanderbilt PSeudopotential)
 scalar-relativistic version 2.1.1, 03/26/2014 by D. R. Hamann
 The code is available through a link at URL www.mat-simresearch.com.
 Documentation with the package provides a full discription of the
 input data below.


 While it is not required under the terms of the GNU GPL, it is
 suggested that you cite D. R. Hamann, Phys. Rev. B 88, 085117 (2013)
 in any publication using these pseudopotentials.


 Copyright 2015 The Regents of the University of California
 
 This work is licensed under the Creative Commons Attribution-ShareAlike 
 4.0 International License. To view a copy of this license, visit 
 http://creativecommons.org/licenses/by-sa/4.0/ or send a letter to 
 Creative Commons, PO Box 1866, Mountain View, CA 94042, USA.
 
 This pseudopotential is part of the Schlipf-Gygi norm-conserving 
 pseudopotential library. Its construction parameters were tuned to 
 reproduce materials of a training set with very high accuracy and 
 should be suitable as a general purpose pseudopotential to treat a 
 variety of different compounds. For details of the construction and 
 testing of the pseudopotential please refer to:
 
   M. Schlipf and F. Gygi, Computer Physics Communications (2015)
   DOI: 10.1016/j.cpc.2015.05.011
   http://dx.doi.org/10.1016/j.cpc.2015.05.011
   http://www.quantum-simulation.org
 
 We kindly ask that you include this reference in all publications 
 associated to this pseudopotential.


    <PP_INPUTFILE>
# ATOM AND REFERENCE CONFIGURATION
# atsym  z    nc    nv    iexc   psfile
  Mn 25.00     3     4     4      upf
#
#   n    l    f        energy (Ha)
    1    0    2.00
    2    0    2.00
    2    1    6.00
    3    0    2.00
    3    1    6.00
    4    0    2.00
    3    2    5.00
#
# PSEUDOPOTENTIAL AND OPTIMIZATION
# lmax
    2
#
#   l,   rc,     ep,   ncon, nbas, qcut
    0   2.47442  -3.15601    5    8   6.16880
    1   2.47442  -2.00626    5    8   7.85878
    2   2.11898  -0.24883    5    8   7.59051
#
# LOCAL POTENTIAL
# lloc, lpopt,  rc(5),   dvloc0
    4    5   1.92612      0.00000
#
# VANDERBILT-KLEINMAN-BYLANDER PROJECTORs
# l, nproj, debl
    0    2   2.96832
    1    2   1.95591
    2    2   1.09448
#
# MODEL CORE CHARGE
# icmod, fcfact
    0   0.00000
#
# LOG DERIVATIVE ANALYSIS
# epsh1, epsh2, depsh
   -5.00    3.00    0.02
#
# OUTPUT GRID
# rlmax, drl
    6.00    0.01
#
# TEST CONFIGURATIONS
# ncnf
    0
# nvcnf
#   n    l    f
    </PP_INPUTFILE>
  </PP_INFO>
  <!--                               -->
  <!-- END OF HUMAN READABLE SECTION -->
  <!--                               -->
    <PP_HEADER
       generated="Generated using ONCVPSP code by D. R. Hamann"
       author="Martin Schlipf and Francois Gygi"
       date="150105"
       comment=""
       element="Mn"
       pseudo_type="NC"
       relativistic="scalar"
       is_ultrasoft="F"
       is_paw="F"
       is_coulomb="F"
       has_so="F"
       has_wfc="F"
       has_gipaw="F"
       core_correction="F"
       functional="PBE"
       z_valence="   15.00"
       total_psenergy="  -9.91930864040E+01"
       rho_cutoff="   6.01000000000E+00"
       l_max="2"
       l_local="-1"
       mesh_size="   602"
       number_of_wfc="4"
       number_of_proj="6"/>
 <PP_MESH>
   <PP_R type="real"  size=" 602" columns="8">
    0.0000    0.0100    0.0200    0.0300    0.0400    0.0500    0.0600    0.0700
    0.0800    0.0900    0.1000    0.1100    0.1200    0.1300    0.1400    0.1500
    0.1600    0.1700    0.1800    0.1900    0.2000    0.2100    0.2200    0.2300
    0.2400    0.2500    0.2600    0.2700    0.2800    0.2900    0.3000    0.3100
    0.3200    0.3300    0.3400    0.3500    0.3600    0.3700    0.3800    0.3900
    0.4000    0.4100    0.4200    0.4300    0.4400    0.4500    0.4600    0.4700
    0.4800    0.4900    0.5000    0.5100    0.5200    0.5300    0.5400    0.5500
    0.5600    0.5700    0.5800    0.5900    0.6000    0.6100    0.6200    0.6300
    0.6400    0.6500    0.6600    0.6700    0.6800    0.6900    0.7000    0.7100
    0.7200    0.7300    0.7400    0.7500    0.7600    0.7700    0.7800    0.7900
    0.8000    0.8100    0.8200    0.8300    0.8400    0.8500    0.8600    0.8700
    0.8800    0.8900    0.9000    0.9100    0.9200    0.9300    0.9400    0.9500
    0.9600    0.9700    0.9800    0.9900    1.0000    1.0100    1.0200    1.0300
    1.0400    1.0500    1.0600    1.0700    1.0800    1.0900    1.1000    1.1100
    1.1200    1.1300    1.1400    1.1500    1.1600    1.1700    1.1800    1.1900
    1.2000    1.2100    1.2200    1.2300    1.2400    1.2500    1.2600    1.2700
    1.2800    1.2900    1.3000    1.3100    1.3200    1.3300    1.3400    1.3500
    1.3600    1.3700    1.3800    1.3900    1.4000    1.4100    1.4200    1.4300
    1.4400    1.4500    1.4600    1.4700    1.4800    1.4900    1.5000    1.5100
    1.5200    1.5300    1.5400    1.5500    1.5600    1.5700    1.5800    1.5900
    1.6000    1.6100    1.6200    1.6300    1.6400    1.6500    1.6600    1.6700
    1.6800    1.6900    1.7000    1.7100    1.7200    1.7300    1.7400    1.7500
    1.7600    1.7700    1.7800    1.7900    1.8000    1.8100    1.8200    1.8300
    1.8400    1.8500    1.8600    1.8700    1.8800    1.8900    1.9000    1.9100
    1.9200    1.9300    1.9400    1.9500    1.9600    1.9700    1.9800    1.9900
    2.0000    2.0100    2.0200    2.0300    2.0400    2.0500    2.0600    2.0700
    2.0800    2.0900    2.1000    2.1100    2.1200    2.1300    2.1400    2.1500
    2.1600    2.1700    2.1800    2.1900    2.2000    2.2100    2.2200    2.2300
    2.2400    2.2500    2.2600    2.2700    2.2800    2.2900    2.3000    2.3100
    2.3200    2.3300    2.3400    2.3500    2.3600    2.3700    2.3800    2.3900
    2.4000    2.4100    2.4200    2.4300    2.4400    2.4500    2.4600    2.4700
    2.4800    2.4900    2.5000    2.5100    2.5200    2.5300    2.5400    2.5500
    2.5600    2.5700    2.5800    2.5900    2.6000    2.6100    2.6200    2.6300
    2.6400    2.6500    2.6600    2.6700    2.6800    2.6900    2.7000    2.7100
    2.7200    2.7300    2.7400    2.7500    2.7600    2.7700    2.7800    2.7900
    2.8000    2.8100    2.8200    2.8300    2.8400    2.8500    2.8600    2.8700
    2.8800    2.8900    2.9000    2.9100    2.9200    2.9300    2.9400    2.9500
    2.9600    2.9700    2.9800    2.9900    3.0000    3.0100    3.0200    3.0300
    3.0400    3.0500    3.0600    3.0700    3.0800    3.0900    3.1000    3.1100
    3.1200    3.1300    3.1400    3.1500    3.1600    3.1700    3.1800    3.1900
    3.2000    3.2100    3.2200    3.2300    3.2400    3.2500    3.2600    3.2700
    3.2800    3.2900    3.3000    3.3100    3.3200    3.3300    3.3400    3.3500
    3.3600    3.3700    3.3800    3.3900    3.4000    3.4100    3.4200    3.4300
    3.4400    3.4500    3.4600    3.4700    3.4800    3.4900    3.5000    3.5100
    3.5200    3.5300    3.5400    3.5500    3.5600    3.5700    3.5800    3.5900
    3.6000    3.6100    3.6200    3.6300    3.6400    3.6500    3.6600    3.6700
    3.6800    3.6900    3.7000    3.7100    3.7200    3.7300    3.7400    3.7500
    3.7600    3.7700    3.7800    3.7900    3.8000    3.8100    3.8200    3.8300
    3.8400    3.8500    3.8600    3.8700    3.8800    3.8900    3.9000    3.9100
    3.9200    3.9300    3.9400    3.9500    3.9600    3.9700    3.9800    3.9900
    4.0000    4.0100    4.0200    4.0300    4.0400    4.0500    4.0600    4.0700
    4.0800    4.0900    4.1000    4.1100    4.1200    4.1300    4.1400    4.1500
    4.1600    4.1700    4.1800    4.1900    4.2000    4.2100    4.2200    4.2300
    4.2400    4.2500    4.2600    4.2700    4.2800    4.2900    4.3000    4.3100
    4.3200    4.3300    4.3400    4.3500    4.3600    4.3700    4.3800    4.3900
    4.4000    4.4100    4.4200    4.4300    4.4400    4.4500    4.4600    4.4700
    4.4800    4.4900    4.5000    4.5100    4.5200    4.5300    4.5400    4.5500
    4.5600    4.5700    4.5800    4.5900    4.6000    4.6100    4.6200    4.6300
    4.6400    4.6500    4.6600    4.6700    4.6800    4.6900    4.7000    4.7100
    4.7200    4.7300    4.7400    4.7500    4.7600    4.7700    4.7800    4.7900
    4.8000    4.8100    4.8200    4.8300    4.8400    4.8500    4.8600    4.8700
    4.8800    4.8900    4.9000    4.9100    4.9200    4.9300    4.9400    4.9500
    4.9600    4.9700    4.9800    4.9900    5.0000    5.0100    5.0200    5.0300
    5.0400    5.0500    5.0600    5.0700    5.0800    5.0900    5.1000    5.1100
    5.1200    5.1300    5.1400    5.1500    5.1600    5.1700    5.1800    5.1900
    5.2000    5.2100    5.2200    5.2300    5.2400    5.2500    5.2600    5.2700
    5.2800    5.2900    5.3000    5.3100    5.3200    5.3300    5.3400    5.3500
    5.3600    5.3700    5.3800    5.3900    5.4000    5.4100    5.4200    5.4300
    5.4400    5.4500    5.4600    5.4700    5.4800    5.4900    5.5000    5.5100
    5.5200    5.5300    5.5400    5.5500    5.5600    5.5700    5.5800    5.5900
    5.6000    5.6100    5.6200    5.6300    5.6400    5.6500    5.6600    5.6700
    5.6800    5.6900    5.7000    5.7100    5.7200    5.7300    5.7400    5.7500
    5.7600    5.7700    5.7800    5.7900    5.8000    5.8100    5.8200    5.8300
    5.8400    5.8500    5.8600    5.8700    5.8800    5.8900    5.9000    5.9100
    5.9200    5.9300    5.9400    5.9500    5.9600    5.9700    5.9800    5.9900
    6.0000    6.0100
   </PP_R>
   <PP_RAB type="real"  size=" 602" columns="8">
    0.0100    0.0100    0.0100    0.0100    0.0100    0.0100    0.0100    0.0100
    0.0100    0.0100    0.0100    0.0100    0.0100    0.0100    0.0100    0.0100
    0.0100    0.0100    0.0100    0.0100    0.0100    0.0100    0.0100    0.0100
    0.0100    0.0100    0.0100    0.0100    0.0100    0.0100    0.0100    0.0100
    0.0100    0.0100    0.0100    0.0100    0.0100    0.0100    0.0100    0.0100
    0.0100    0.0100    0.0100    0.0100    0.0100    0.0100    0.0100    0.0100
    0.0100    0.0100    0.0100    0.0100    0.0100    0.0100    0.0100    0.0100
    0.0100    0.0100    0.0100    0.0100    0.0100    0.0100    0.0100    0.0100
    0.0100    0.0100    0.0100    0.0100    0.0100    0.0100    0.0100    0.0100
    0.0100    0.0100    0.0100    0.0100    0.0100    0.0100    0.0100    0.0100
    0.0100    0.0100    0.0100    0.0100    0.0100    0.0100    0.0100    0.0100
    0.0100    0.0100    0.0100    0.0100    0.0100    0.0100    0.0100    0.0100
    0.0100    0.0100    0.0100    0.0100    0.0100    0.0100    0.0100    0.0100
    0.0100    0.0100    0.0100    0.0100    0.0100    0.0100    0.0100    0.0100
    0.0100    0.0100    0.0100    0.0100    0.0100    0.0100    0.0100    0.0100
    0.0100    0.0100    0.0100    0.0100    0.0100    0.0100    0.0100    0.0100
    0.0100    0.0100    0.0100    0.0100    0.0100    0.0100    0.0100    0.0100
    0.0100    0.0100    0.0100    0.0100    0.0100    0.0100    0.0100    0.0100
    0.0100    0.0100    0.0100    0.0100    0.0100    0.0100    0.0100    0.0100
    0.0100    0.0100    0.0100    0.0100    0.0100    0.0100    0.0100    0.0100
    0.0100    0.0100    0.0100    0.0100    0.0100    0.0100    0.0100    0.0100
    0.0100    0.0100    0.0100    0.0100    0.0100    0.0100    0.0100    0.0100
    0.0100    0.0100    0.0100    0.0100    0.0100    0.0100    0.0100    0.0100
    0.0100    0.0100    0.0100    0.0100    0.0100    0.0100    0.0100    0.0100
    0.0100    0.0100    0.0100    0.0100    0.0100    0.0100    0.0100    0.0100
    0.0100    0.0100    0.0100    0.0100    0.0100    0.0100    0.0100    0.0100
    0.0100    0.0100    0.0100    0.0100    0.0100    0.0100    0.0100    0.0100
    0.0100    0.0100    0.0100    0.0100    0.0100    0.0100    0.0100    0.0100
    0.0100    0.0100    0.0100    0.0100    0.0100    0.0100    0.0100    0.0100
    0.0100    0.0100    0.0100    0.0100    0.0100    0.0100    0.0100    0.0100
    0.0100    0.0100    0.0100    0.0100    0.0100    0.0100    0.0100    0.0100
    0.0100    0.0100    0.0100    0.0100    0.0100    0.0100    0.0100    0.0100
    0.0100    0.0100    0.0100    0.0100    0.0100    0.0100    0.0100    0.0100
    0.0100    0.0100    0.0100    0.0100    0.0100    0.0100    0.0100    0.0100
    0.0100    0.0100    0.0100    0.0100    0.0100    0.0100    0.0100    0.0100
    0.0100    0.0100    0.0100    0.0100    0.0100    0.0100    0.0100    0.0100
    0.0100    0.0100    0.0100    0.0100    0.0100    0.0100    0.0100    0.0100
    0.0100    0.0100    0.0100    0.0100    0.0100    0.0100    0.0100    0.0100
    0.0100    0.0100    0.0100    0.0100    0.0100    0.0100    0.0100    0.0100
    0.0100    0.0100    0.0100    0.0100    0.0100    0.0100    0.0100    0.0100
    0.0100    0.0100    0.0100    0.0100    0.0100    0.0100    0.0100    0.0100
    0.0100    0.0100    0.0100    0.0100    0.0100    0.0100    0.0100    0.0100
    0.0100    0.0100    0.0100    0.0100    0.0100    0.0100    0.0100    0.0100
    0.0100    0.0100    0.0100    0.0100    0.0100    0.0100    0.0100    0.0100
    0.0100    0.0100    0.0100    0.0100    0.0100    0.0100    0.0100    0.0100
    0.0100    0.0100    0.0100    0.0100    0.0100    0.0100    0.0100    0.0100
    0.0100    0.0100    0.0100    0.0100    0.0100    0.0100    0.0100    0.0100
    0.0100    0.0100    0.0100    0.0100    0.0100    0.0100    0.0100    0.0100
    0.0100    0.0100    0.0100    0.0100    0.0100    0.0100    0.0100    0.0100
    0.0100    0.0100    0.0100    0.0100    0.0100    0.0100    0.0100    0.0100
    0.0100    0.0100    0.0100    0.0100    0.0100    0.0100    0.0100    0.0100
    0.0100    0.0100    0.0100    0.0100    0.0100    0.0100    0.0100    0.0100
    0.0100    0.0100    0.0100    0.0100    0.0100    0.0100    0.0100    0.0100
    0.0100    0.0100    0.0100    0.0100    0.0100    0.0100    0.0100    0.0100
    0.0100    0.0100    0.0100    0.0100    0.0100    0.0100    0.0100    0.0100
    0.0100    0.0100    0.0100    0.0100    0.0100    0.0100    0.0100    0.0100
    0.0100    0.0100    0.0100    0.0100    0.0100    0.0100    0.0100    0.0100
    0.0100    0.0100    0.0100    0.0100    0.0100    0.0100    0.0100    0.0100
    0.0100    0.0100    0.0100    0.0100    0.0100    0.0100    0.0100    0.0100
    0.0100    0.0100    0.0100    0.0100    0.0100    0.0100    0.0100    0.0100
    0.0100    0.0100    0.0100    0.0100    0.0100    0.0100    0.0100    0.0100
    0.0100    0.0100    0.0100    0.0100    0.0100    0.0100    0.0100    0.0100
    0.0100    0.0100    0.0100    0.0100    0.0100    0.0100    0.0100    0.0100
    0.0100    0.0100    0.0100    0.0100    0.0100    0.0100    0.0100    0.0100
    0.0100    0.0100    0.0100    0.0100    0.0100    0.0100    0.0100    0.0100
    0.0100    0.0100    0.0100    0.0100    0.0100    0.0100    0.0100    0.0100
    0.0100    0.0100    0.0100    0.0100    0.0100    0.0100    0.0100    0.0100
    0.0100    0.0100    0.0100    0.0100    0.0100    0.0100    0.0100    0.0100
    0.0100    0.0100    0.0100    0.0100    0.0100    0.0100    0.0100    0.0100
    0.0100    0.0100    0.0100    0.0100    0.0100    0.0100    0.0100    0.0100
    0.0100    0.0100    0.0100    0.0100    0.0100    0.0100    0.0100    0.0100
    0.0100    0.0100    0.0100    0.0100    0.0100    0.0100    0.0100    0.0100
    0.0100    0.0100    0.0100    0.0100    0.0100    0.0100    0.0100    0.0100
    0.0100    0.0100    0.0100    0.0100    0.0100    0.0100    0.0100    0.0100
    0.0100    0.0100    0.0100    0.0100    0.0100    0.0100    0.0100    0.0100
    0.0100    0.0100
   </PP_RAB>
 </PP_MESH>
  <PP_LOCAL type="real"  size=" 602" columns="4">
   -3.7021708874e+01   -3.7021116306e+01   -3.7019320924e+01   -3.7016269701e+01
   -3.7011874256e+01   -3.7006010854e+01   -3.6998520410e+01   -3.6989208485e+01
   -3.6977845289e+01   -3.6964165679e+01   -3.6947869158e+01   -3.6928659306e+01
   -3.6906390454e+01   -3.6880996672e+01   -3.6852454430e+01   -3.6820776116e+01
   -3.6786002981e+01   -3.6748198213e+01   -3.6707440598e+01   -3.6663819013e+01
   -3.6617427851e+01   -3.6568363382e+01   -3.6516720959e+01   -3.6462592967e+01
   -3.6406067382e+01   -3.6347226827e+01   -3.6286148005e+01   -3.6222901417e+01
   -3.6157551280e+01   -3.6090155593e+01   -3.6020766286e+01   -3.5949429423e+01
   -3.5876185435e+01   -3.5801069349e+01   -3.5724111033e+01   -3.5645335395e+01
   -3.5564762608e+01   -3.5482408267e+01   -3.5398283582e+01   -3.5312395535e+01
   -3.5224747022e+01   -3.5135337020e+01   -3.5044160750e+01   -3.4951209861e+01
   -3.4856472635e+01   -3.4759934234e+01   -3.4661576980e+01   -3.4561380691e+01
   -3.4459323057e+01   -3.4355380102e+01   -3.4249526690e+01   -3.4141737082e+01
   -3.4031985573e+01   -3.3920247166e+01   -3.3806498275e+01   -3.3690717513e+01
   -3.3572886357e+01   -3.3452990051e+01   -3.3331018112e+01   -3.3206965265e+01
   -3.3080831796e+01   -3.2952624244e+01   -3.2822355815e+01   -3.2690046428e+01
   -3.2555723326e+01   -3.2419420766e+01   -3.2281179903e+01   -3.2141048869e+01
   -3.1999082210e+01   -3.1855340449e+01   -3.1709889537e+01   -3.1562800415e+01
   -3.1414148242e+01   -3.1264011715e+01   -3.1112472409e+01   -3.0959614111e+01
   -3.0805522168e+01   -3.0650282886e+01   -3.0493982960e+01   -3.0336708959e+01
   -3.0178546888e+01   -3.0019581796e+01   -2.9859897454e+01   -2.9699576082e+01
   -2.9538698132e+01   -2.9377342119e+01   -2.9215584496e+01   -2.9053499560e+01
   -2.8891159399e+01   -2.8728633847e+01   -2.8565990476e+01   -2.8403294587e+01
   -2.8240609218e+01   -2.8077995178e+01   -2.7915511037e+01   -2.7753213092e+01
   -2.7591155458e+01   -2.7429390049e+01   -2.7267966580e+01   -2.7106932567e+01
   -2.6946333327e+01   -2.6786212054e+01   -2.6626609577e+01   -2.6467564469e+01
   -2.6309113067e+01   -2.6151289421e+01   -2.5994125336e+01   -2.5837650295e+01
   -2.5681891167e+01   -2.5526872579e+01   -2.5372616778e+01   -2.5219143880e+01
   -2.5066471139e+01   -2.4914613557e+01   -2.4763583860e+01   -2.4613392792e+01
   -2.4464048229e+01   -2.4315556088e+01   -2.4167920388e+01   -2.4021143215e+01
   -2.3875224348e+01   -2.3730162202e+01   -2.3585953932e+01   -2.3442594765e+01
   -2.3300079116e+01   -2.3158400630e+01   -2.3017551953e+01   -2.2877525476e+01
   -2.2738313362e+01   -2.2599907747e+01   -2.2462301227e+01   -2.2325486533e+01
   -2.2189457547e+01   -2.2054208987e+01   -2.1919736126e+01   -2.1786036449e+01
   -2.1653108034e+01   -2.1520950597e+01   -2.1389565955e+01   -2.1258956274e+01
   -2.1129126675e+01   -2.1000082921e+01   -2.0871832261e+01   -2.0744383998e+01
   -2.0617747487e+01   -2.0491934495e+01   -2.0366956729e+01   -2.0242827143e+01
   -2.0119559075e+01   -1.9997166216e+01   -1.9875662366e+01   -1.9755061433e+01
   -1.9635376668e+01   -1.9516621244e+01   -1.9398807288e+01   -1.9281946184e+01
   -1.9166048459e+01   -1.9051122816e+01   -1.8937177753e+01   -1.8824218696e+01
   -1.8712251742e+01   -1.8601278800e+01   -1.8491303305e+01   -1.8382323803e+01
   -1.8274340896e+01   -1.8167350357e+01   -1.8061349906e+01   -1.7956333370e+01
   -1.7852296031e+01   -1.7749230487e+01   -1.7647130278e+01   -1.7545987595e+01
   -1.7445794971e+01   -1.7346545016e+01   -1.7248229949e+01   -1.7150843400e+01
   -1.7054378051e+01   -1.6958828698e+01   -1.6864189140e+01   -1.6770455198e+01
   -1.6677622130e+01   -1.6585686474e+01   -1.6494644849e+01   -1.6404494207e+01
   -1.6315231947e+01   -1.6226855246e+01   -1.6139361304e+01   -1.6052747482e+01
   -1.5967009696e+01   -1.5882145235e+01   -1.5798148308e+01   -1.5715014772e+01
   -1.5632737821e+01   -1.5551310509e+01   -1.5470725523e+01   -1.5390973530e+01
   -1.5312046582e+01   -1.5233934117e+01   -1.5156626998e+01   -1.5080114363e+01
   -1.5004385466e+01   -1.4929429441e+01   -1.4855234418e+01   -1.4781789167e+01
   -1.4709081681e+01   -1.4637100079e+01   -1.4565832688e+01   -1.4495267906e+01
   -1.4425393721e+01   -1.4356199711e+01   -1.4287674283e+01   -1.4219807362e+01
   -1.4152589369e+01   -1.4086009757e+01   -1.4020060584e+01   -1.3954732779e+01
   -1.3890017804e+01   -1.3825907463e+01   -1.3762393296e+01   -1.3699467037e+01
   -1.3637120205e+01   -1.3575344522e+01   -1.3514132270e+01   -1.3453475248e+01
   -1.3393365863e+01   -1.3333796500e+01   -1.3274759216e+01   -1.3216247016e+01
   -1.3158252408e+01   -1.3100768105e+01   -1.3043787388e+01   -1.2987303004e+01
   -1.2931308335e+01   -1.2875796929e+01   -1.2820761804e+01   -1.2766196985e+01
   -1.2712096239e+01   -1.2658453006e+01   -1.2605261772e+01   -1.2552516526e+01
   -1.2500211259e+01   -1.2448340730e+01   -1.2396899215e+01   -1.2345881191e+01
   -1.2295281683e+01   -1.2245095255e+01   -1.2195316809e+01   -1.2145941611e+01
   -1.2096964530e+01   -1.2048380799e+01   -1.2000185873e+01   -1.1952374868e+01
   -1.1904943272e+01   -1.1857886746e+01   -1.1811200630e+01   -1.1764880629e+01
   -1.1718922631e+01   -1.1673322234e+01   -1.1628075306e+01   -1.1583177909e+01
   -1.1538625833e+01   -1.1494415080e+01   -1.1450541939e+01   -1.1407002435e+01
   -1.1363792678e+01   -1.1320909156e+01   -1.1278348117e+01   -1.1236105742e+01
   -1.1194178726e+01   -1.1152563544e+01   -1.1111256426e+01   -1.1070254265e+01
   -1.1029553705e+01   -1.0989151186e+01   -1.0949043613e+01   -1.0909227845e+01
   -1.0869700546e+01   -1.0830458598e+01   -1.0791499076e+01   -1.0752818874e+01
   -1.0714414827e+01   -1.0676284221e+01   -1.0638424146e+01   -1.0600831485e+01
   -1.0563503616e+01   -1.0526437799e+01   -1.0489631143e+01   -1.0453080924e+01
   -1.0416784625e+01   -1.0380739588e+01   -1.0344942971e+01   -1.0309392467e+01
   -1.0274085554e+01   -1.0239019574e+01   -1.0204192111e+01   -1.0169600858e+01
   -1.0135243393e+01   -1.0101117137e+01   -1.0067219998e+01   -1.0033549683e+01
   -1.0000103783e+01   -9.9668800714e+00   -9.9338764686e+00   -9.9010907892e+00
   -9.8685206545e+00   -9.8361641503e+00   -9.8040192086e+00   -9.7720836825e+00
   -9.7403554319e+00   -9.7088326171e+00   -9.6775132517e+00   -9.6463952226e+00
   -9.6154766444e+00   -9.5847557039e+00   -9.5542305074e+00   -9.5238989874e+00
   -9.4937594777e+00   -9.4638101955e+00   -9.4340493111e+00   -9.4044748841e+00
   -9.3750853605e+00   -9.3458790187e+00   -9.3168540776e+00   -9.2880087663e+00
   -9.2593415757e+00   -9.2308508644e+00   -9.2025349068e+00   -9.1743920742e+00
   -9.1464209062e+00   -9.1186198381e+00   -9.0909872058e+00   -9.0635214961e+00
   -9.0362213028e+00   -9.0090851337e+00   -8.9821113923e+00   -8.9552986554e+00
   -8.9286455762e+00   -8.9021507322e+00   -8.8758125987e+00   -8.8496298193e+00
   -8.8236011118e+00   -8.7977251201e+00   -8.7720003961e+00   -8.7464256280e+00
   -8.7209996032e+00   -8.6957210287e+00   -8.6705885379e+00   -8.6456008427e+00
   -8.6207568045e+00   -8.5960551908e+00   -8.5714947207e+00   -8.5470741107e+00
   -8.5227923001e+00   -8.4986481138e+00   -8.4746403614e+00   -8.4507677466e+00
   -8.4270292892e+00   -8.4034238687e+00   -8.3799503648e+00   -8.3566075275e+00
   -8.3333943847e+00   -8.3103098924e+00   -8.2873529824e+00   -8.2645225027e+00
   -8.2418174261e+00   -8.2192368031e+00   -8.1967796155e+00   -8.1744448146e+00
   -8.1522313036e+00   -8.1301382285e+00   -8.1081646183e+00   -8.0863095020e+00
   -8.0645717942e+00   -8.0429506436e+00   -8.0214451543e+00   -8.0000544006e+00
   -7.9787774074e+00   -7.9576132196e+00   -7.9365610472e+00   -7.9156200076e+00
   -7.8947892182e+00   -7.8740676824e+00   -7.8534546418e+00   -7.8329492783e+00
   -7.8125507502e+00   -7.7922581788e+00   -7.7720706724e+00   -7.7519875263e+00
   -7.7320079381e+00   -7.7121311056e+00   -7.6923561399e+00   -7.6726823033e+00
   -7.6531088767e+00   -7.6336350953e+00   -7.6142601942e+00   -7.5949832847e+00
   -7.5758037580e+00   -7.5567208870e+00   -7.5377339424e+00   -7.5188421623e+00
   -7.5000447653e+00   -7.4813411490e+00   -7.4627306182e+00   -7.4442124775e+00
   -7.4257859734e+00   -7.4074504183e+00   -7.3892052146e+00   -7.3710496995e+00
   -7.3529832102e+00   -7.3350050080e+00   -7.3171144796e+00   -7.2993110381e+00
   -7.2815940515e+00   -7.2639628877e+00   -7.2464168298e+00   -7.2289553194e+00
   -7.2115777863e+00   -7.1942836281e+00   -7.1770722420e+00   -7.1599429382e+00
   -7.1428951957e+00   -7.1259284671e+00   -7.1090421778e+00   -7.0922357535e+00
   -7.0755085361e+00   -7.0588600259e+00   -7.0422897037e+00   -7.0257970217e+00
   -7.0093814322e+00   -6.9930423143e+00   -6.9767791738e+00   -6.9605915250e+00
   -6.9444788458e+00   -6.9284406138e+00   -6.9124762501e+00   -6.8965852514e+00
   -6.8807671704e+00   -6.8650215092e+00   -6.8493477700e+00   -6.8337454202e+00
   -6.8182139342e+00   -6.8027529071e+00   -6.7873618643e+00   -6.7720403311e+00
   -6.7567878261e+00   -6.7416037891e+00   -6.7264878610e+00   -6.7114395892e+00
   -6.6964585212e+00   -6.6815442046e+00   -6.6666961135e+00   -6.6519138575e+00
   -6.6371970315e+00   -6.6225452040e+00   -6.6079579437e+00   -6.5934347849e+00
   -6.5789752737e+00   -6.5645790619e+00   -6.5502457384e+00   -6.5359748916e+00
   -6.5217661103e+00   -6.5076188996e+00   -6.4935329380e+00   -6.4795078436e+00
   -6.4655432245e+00   -6.4516386884e+00   -6.4377938086e+00   -6.4240081755e+00
   -6.4102814735e+00   -6.3966133288e+00   -6.3830033675e+00   -6.3694512157e+00
   -6.3559564290e+00   -6.3425186974e+00   -6.3291376842e+00   -6.3158130331e+00
   -6.3025443875e+00   -6.2893313795e+00   -6.2761735897e+00   -6.2630707544e+00
   -6.2500225337e+00   -6.2370285878e+00   -6.2240885767e+00   -6.2112021254e+00
   -6.1983688839e+00   -6.1855885795e+00   -6.1728608884e+00   -6.1601854863e+00
   -6.1475620494e+00   -6.1349902015e+00   -6.1224696469e+00   -6.1100001092e+00
   -6.0975812797e+00   -6.0852128492e+00   -6.0728945090e+00   -6.0606258882e+00
   -6.0484067297e+00   -6.0362367595e+00   -6.0241156831e+00   -6.0120432059e+00
   -6.0000190334e+00   -5.9880428052e+00   -5.9761142891e+00   -5.9642332188e+00
   -5.9523993134e+00   -5.9406122920e+00   -5.9288718740e+00   -5.9171777142e+00
   -5.9055295923e+00   -5.8939272546e+00   -5.8823704335e+00   -5.8708588613e+00
   -5.8593922701e+00   -5.8479703352e+00   -5.8365928352e+00   -5.8252595346e+00
   -5.8139701781e+00   -5.8027245104e+00   -5.7915222762e+00   -5.7803631753e+00
   -5.7692469740e+00   -5.7581734592e+00   -5.7471423876e+00   -5.7361535157e+00
   -5.7252066001e+00   -5.7143013696e+00   -5.7034375672e+00   -5.6926150065e+00
   -5.6818334553e+00   -5.6710926816e+00   -5.6603924534e+00   -5.6497325326e+00
   -5.6391126291e+00   -5.6285325865e+00   -5.6179921834e+00   -5.6074911987e+00
   -5.5970294111e+00   -5.5866065994e+00   -5.5762224927e+00   -5.5658769063e+00
   -5.5555696495e+00   -5.5453005114e+00   -5.5350692811e+00   -5.5248757476e+00
   -5.5147196819e+00   -5.5046008436e+00   -5.4945190815e+00   -5.4844741947e+00
   -5.4744659819e+00   -5.4644942421e+00   -5.4545587742e+00   -5.4446593279e+00
   -5.4347957405e+00   -5.4249678378e+00   -5.4151754281e+00   -5.4054183196e+00
   -5.3956963206e+00   -5.3860092304e+00   -5.3763568116e+00   -5.3667389370e+00
   -5.3571554239e+00   -5.3476060895e+00   -5.3380907509e+00   -5.3286092254e+00
   -5.3191613012e+00   -5.3097467934e+00   -5.3003655624e+00   -5.2910174340e+00
   -5.2817022340e+00   -5.2724197880e+00   -5.2631699217e+00   -5.2539524180e+00
   -5.2447671317e+00   -5.2356139159e+00   -5.2264926043e+00   -5.2174030309e+00
   -5.2083450295e+00   -5.1993184339e+00   -5.1903230268e+00   -5.1813586904e+00
   -5.1724252754e+00   -5.1635226235e+00   -5.1546505762e+00   -5.1458089751e+00
   -5.1369976619e+00   -5.1282164238e+00   -5.1194651587e+00   -5.1107437202e+00
   -5.1020519572e+00   -5.0933897187e+00   -5.0847568536e+00   -5.0761532110e+00
   -5.0675785874e+00   -5.0590328852e+00   -5.0505159657e+00   -5.0420276848e+00
   -5.0335678985e+00   -5.0251364628e+00   -5.0167332338e+00   -5.0083580212e+00
   -5.0000107223e+00   -4.9916912101e+00
  </PP_LOCAL>
 <PP_NONLOCAL>
   <PP_BETA.1
       type="real"
       size=" 602"
       columns="4"
       index="1"
       angular_momentum="0"
       cutoff_radius_index=" 252"
       cutoff_radius="    2.5100000000E+00" >
    0.0000000000E+00    5.3934833370E-02    1.0775431157E-01    1.6134333908E-01
    2.1458733915E-01    2.6737251152E-01    3.1958608847E-01    3.7111658834E-01
    4.2185406591E-01    4.7169035931E-01    5.2051933253E-01    5.6823711317E-01
    6.1474232485E-01    6.5993631367E-01    7.0372336815E-01    7.4601093233E-01
    7.8670981115E-01    8.2573436821E-01    8.6300271473E-01    8.9843688986E-01
    9.3196303166E-01    9.6351153830E-01    9.9301721941E-01    1.0204194366E+00
    1.0456622337E+00    1.0686944559E+00    1.0894698568E+00    1.1079471951E+00
    1.1240903191E+00    1.1378682385E+00    1.1492551851E+00    1.1582306605E+00
    1.1647794722E+00    1.1688917570E+00    1.1705629907E+00    1.1697939885E+00
    1.1665908887E+00    1.1609651281E+00    1.1529334025E+00    1.1425176156E+00
    1.1297448168E+00    1.1146471255E+00    1.0972616455E+00    1.0776303664E+00
    1.0558000551E+00    1.0318221349E+00    1.0057525564E+00    9.7765165640E-01
    9.4758400407E-01    9.1561824335E-01    8.8182692437E-01    8.4628632939E-01
    8.0907626845E-01    7.7027990945E-01    7.2998356454E-01    6.8827646979E-01
    6.4525061107E-01    6.0100043723E-01    5.5562272053E-01    5.0921623204E-01
    4.6188159463E-01    4.1372098785E-01    3.6483790880E-01    3.1533700928E-01
    2.6532370836E-01    2.1490405872E-01    1.6418451439E-01    1.1327157432E-01
    6.2271612713E-02    1.1290639560E-02   -3.9565918856E-02   -9.0193555793E-02
   -1.4048885759E-01   -1.9034972493E-01   -2.3967561540E-01   -2.8836776789E-01
   -3.3632940661E-01   -3.8346597626E-01   -4.2968537443E-01   -4.7489809222E-01
   -5.1901743030E-01   -5.6195968310E-01   -6.0364431468E-01   -6.4399412593E-01
   -6.8293541261E-01   -7.2039811397E-01   -7.5631595160E-01   -7.9062655808E-01