<UPF version="2.0.1">
  <PP_INFO>

 Ni_ONCV_PBE-1.2.upf

 This pseudopotential file has been produced using the code
 ONCVPSP  (Optimized Norm-Conservinng Vanderbilt PSeudopotential)
 scalar-relativistic version 2.1.1, 03/26/2014 by D. R. Hamann
 The code is available through a link at URL www.mat-simresearch.com.
 Documentation with the package provides a full discription of the
 input data below.


 While it is not required under the terms of the GNU GPL, it is
 suggested that you cite D. R. Hamann, Phys. Rev. B 88, 085117 (2013)
 in any publication using these pseudopotentials.


 Copyright 2015 The Regents of the University of California
 
 This work is licensed under the Creative Commons Attribution-ShareAlike 
 4.0 International License. To view a copy of this license, visit 
 http://creativecommons.org/licenses/by-sa/4.0/ or send a letter to 
 Creative Commons, PO Box 1866, Mountain View, CA 94042, USA.
 
 This pseudopotential is part of the Schlipf-Gygi norm-conserving 
 pseudopotential library. Its construction parameters were tuned to 
 reproduce materials of a training set with very high accuracy and 
 should be suitable as a general purpose pseudopotential to treat a 
 variety of different compounds. For details of the construction and 
 testing of the pseudopotential please refer to:
 
   M. Schlipf and F. Gygi, Computer Physics Communications (2015)
   DOI: 10.1016/j.cpc.2015.05.011
   http://dx.doi.org/10.1016/j.cpc.2015.05.011
   http://www.quantum-simulation.org
 
 We kindly ask that you include this reference in all publications 
 associated to this pseudopotential.


    <PP_INPUTFILE>
# ATOM AND REFERENCE CONFIGURATION
# atsym  z    nc    nv    iexc   psfile
  Ni 28.00     3     4     4      upf
#
#   n    l    f        energy (Ha)
    1    0    2.00
    2    0    2.00
    2    1    6.00
    3    0    2.00
    3    1    6.00
    4    0    2.00
    3    2    8.00
#
# PSEUDOPOTENTIAL AND OPTIMIZATION
# lmax
    2
#
#   l,   rc,     ep,   ncon, nbas, qcut
    0   2.18311  -4.08136    5    8   6.78087
    1   2.18311  -2.62346    5    8   7.57642
    2   2.26265  -0.32612    5    8   8.25154
#
# LOCAL POTENTIAL
# lloc, lpopt,  rc(5),   dvloc0
    4    5   1.86951      0.00000
#
# VANDERBILT-KLEINMAN-BYLANDER PROJECTORs
# l, nproj, debl
    0    2   3.87398
    1    2   3.05568
    2    2   1.27575
#
# MODEL CORE CHARGE
# icmod, fcfact
    0   0.00000
#
# LOG DERIVATIVE ANALYSIS
# epsh1, epsh2, depsh
   -5.00    3.00    0.02
#
# OUTPUT GRID
# rlmax, drl
    6.00    0.01
#
# TEST CONFIGURATIONS
# ncnf
    0
# nvcnf
#   n    l    f
    </PP_INPUTFILE>
  </PP_INFO>
  <!--                               -->
  <!-- END OF HUMAN READABLE SECTION -->
  <!--                               -->
    <PP_HEADER
       generated="Generated using ONCVPSP code by D. R. Hamann"
       author="Martin Schlipf and Francois Gygi"
       date="150105"
       comment=""
       element="Ni"
       pseudo_type="NC"
       relativistic="scalar"
       is_ultrasoft="F"
       is_paw="F"
       is_coulomb="F"
       has_so="F"
       has_wfc="F"
       has_gipaw="F"
       core_correction="F"
       functional="PBE"
       z_valence="   18.00"
       total_psenergy="  -1.53893931252E+02"
       rho_cutoff="   6.01000000000E+00"
       l_max="2"
       l_local="-1"
       mesh_size="   602"
       number_of_wfc="4"
       number_of_proj="6"/>
 <PP_MESH>
   <PP_R type="real"  size=" 602" columns="8">
    0.0000    0.0100    0.0200    0.0300    0.0400    0.0500    0.0600    0.0700
    0.0800    0.0900    0.1000    0.1100    0.1200    0.1300    0.1400    0.1500
    0.1600    0.1700    0.1800    0.1900    0.2000    0.2100    0.2200    0.2300
    0.2400    0.2500    0.2600    0.2700    0.2800    0.2900    0.3000    0.3100
    0.3200    0.3300    0.3400    0.3500    0.3600    0.3700    0.3800    0.3900
    0.4000    0.4100    0.4200    0.4300    0.4400    0.4500    0.4600    0.4700
    0.4800    0.4900    0.5000    0.5100    0.5200    0.5300    0.5400    0.5500
    0.5600    0.5700    0.5800    0.5900    0.6000    0.6100    0.6200    0.6300
    0.6400    0.6500    0.6600    0.6700    0.6800    0.6900    0.7000    0.7100
    0.7200    0.7300    0.7400    0.7500    0.7600    0.7700    0.7800    0.7900
    0.8000    0.8100    0.8200    0.8300    0.8400    0.8500    0.8600    0.8700
    0.8800    0.8900    0.9000    0.9100    0.9200    0.9300    0.9400    0.9500
    0.9600    0.9700    0.9800    0.9900    1.0000    1.0100    1.0200    1.0300
    1.0400    1.0500    1.0600    1.0700    1.0800    1.0900    1.1000    1.1100
    1.1200    1.1300    1.1400    1.1500    1.1600    1.1700    1.1800    1.1900
    1.2000    1.2100    1.2200    1.2300    1.2400    1.2500    1.2600    1.2700
    1.2800    1.2900    1.3000    1.3100    1.3200    1.3300    1.3400    1.3500
    1.3600    1.3700    1.3800    1.3900    1.4000    1.4100    1.4200    1.4300
    1.4400    1.4500    1.4600    1.4700    1.4800    1.4900    1.5000    1.5100
    1.5200    1.5300    1.5400    1.5500    1.5600    1.5700    1.5800    1.5900
    1.6000    1.6100    1.6200    1.6300    1.6400    1.6500    1.6600    1.6700
    1.6800    1.6900    1.7000    1.7100    1.7200    1.7300    1.7400    1.7500
    1.7600    1.7700    1.7800    1.7900    1.8000    1.8100    1.8200    1.8300
    1.8400    1.8500    1.8600    1.8700    1.8800    1.8900    1.9000    1.9100
    1.9200    1.9300    1.9400    1.9500    1.9600    1.9700    1.9800    1.9900
    2.0000    2.0100    2.0200    2.0300    2.0400    2.0500    2.0600    2.0700
    2.0800    2.0900    2.1000    2.1100    2.1200    2.1300    2.1400    2.1500
    2.1600    2.1700    2.1800    2.1900    2.2000    2.2100    2.2200    2.2300
    2.2400    2.2500    2.2600    2.2700    2.2800    2.2900    2.3000    2.3100
    2.3200    2.3300    2.3400    2.3500    2.3600    2.3700    2.3800    2.3900
    2.4000    2.4100    2.4200    2.4300    2.4400    2.4500    2.4600    2.4700
    2.4800    2.4900    2.5000    2.5100    2.5200    2.5300    2.5400    2.5500
    2.5600    2.5700    2.5800    2.5900    2.6000    2.6100    2.6200    2.6300
    2.6400    2.6500    2.6600    2.6700    2.6800    2.6900    2.7000    2.7100
    2.7200    2.7300    2.7400    2.7500    2.7600    2.7700    2.7800    2.7900
    2.8000    2.8100    2.8200    2.8300    2.8400    2.8500    2.8600    2.8700
    2.8800    2.8900    2.9000    2.9100    2.9200    2.9300    2.9400    2.9500
    2.9600    2.9700    2.9800    2.9900    3.0000    3.0100    3.0200    3.0300
    3.0400    3.0500    3.0600    3.0700    3.0800    3.0900    3.1000    3.1100
    3.1200    3.1300    3.1400    3.1500    3.1600    3.1700    3.1800    3.1900
    3.2000    3.2100    3.2200    3.2300    3.2400    3.2500    3.2600    3.2700
    3.2800    3.2900    3.3000    3.3100    3.3200    3.3300    3.3400    3.3500
    3.3600    3.3700    3.3800    3.3900    3.4000    3.4100    3.4200    3.4300
    3.4400    3.4500    3.4600    3.4700    3.4800    3.4900    3.5000    3.5100
    3.5200    3.5300    3.5400    3.5500    3.5600    3.5700    3.5800    3.5900
    3.6000    3.6100    3.6200    3.6300    3.6400    3.6500    3.6600    3.6700
    3.6800    3.6900    3.7000    3.7100    3.7200    3.7300    3.7400    3.7500
    3.7600    3.7700    3.7800    3.7900    3.8000    3.8100    3.8200    3.8300
    3.8400    3.8500    3.8600    3.8700    3.8800    3.8900    3.9000    3.9100
    3.9200    3.9300    3.9400    3.9500    3.9600    3.9700    3.9800    3.9900
    4.0000    4.0100    4.0200    4.0300    4.0400    4.0500    4.0600    4.0700
    4.0800    4.0900    4.1000    4.1100    4.1200    4.1300    4.1400    4.1500
    4.1600    4.1700    4.1800    4.1900    4.2000    4.2100    4.2200    4.2300
    4.2400    4.2500    4.2600    4.2700    4.2800    4.2900    4.3000    4.3100
    4.3200    4.3300    4.3400    4.3500    4.3600    4.3700    4.3800    4.3900
    4.4000    4.4100    4.4200    4.4300    4.4400    4.4500    4.4600    4.4700
    4.4800    4.4900    4.5000    4.5100    4.5200    4.5300    4.5400    4.5500
    4.5600    4.5700    4.5800    4.5900    4.6000    4.6100    4.6200    4.6300
    4.6400    4.6500    4.6600    4.6700    4.6800    4.6900    4.7000    4.7100
    4.7200    4.7300    4.7400    4.7500    4.7600    4.7700    4.7800    4.7900
    4.8000    4.8100    4.8200    4.8300    4.8400    4.8500    4.8600    4.8700
    4.8800    4.8900    4.9000    4.9100    4.9200    4.9300    4.9400    4.9500
    4.9600    4.9700    4.9800    4.9900    5.0000    5.0100    5.0200    5.0300
    5.0400    5.0500    5.0600    5.0700    5.0800    5.0900    5.1000    5.1100
    5.1200    5.1300    5.1400    5.1500    5.1600    5.1700    5.1800    5.1900
    5.2000    5.2100    5.2200    5.2300    5.2400    5.2500    5.2600    5.2700
    5.2800    5.2900    5.3000    5.3100    5.3200    5.3300    5.3400    5.3500
    5.3600    5.3700    5.3800    5.3900    5.4000    5.4100    5.4200    5.4300
    5.4400    5.4500    5.4600    5.4700    5.4800    5.4900    5.5000    5.5100
    5.5200    5.5300    5.5400    5.5500    5.5600    5.5700    5.5800    5.5900
    5.6000    5.6100    5.6200    5.6300    5.6400    5.6500    5.6600    5.6700
    5.6800    5.6900    5.7000    5.7100    5.7200    5.7300    5.7400    5.7500
    5.7600    5.7700    5.7800    5.7900    5.8000    5.8100    5.8200    5.8300
    5.8400    5.8500    5.8600    5.8700    5.8800    5.8900    5.9000    5.9100
    5.9200    5.9300    5.9400    5.9500    5.9600    5.9700    5.9800    5.9900
    6.0000    6.0100
   </PP_R>
   <PP_RAB type="real"  size=" 602" columns="8">
    0.0100    0.0100    0.0100    0.0100    0.0100    0.0100    0.0100    0.0100
    0.0100    0.0100    0.0100    0.0100    0.0100    0.0100    0.0100    0.0100
    0.0100    0.0100    0.0100    0.0100    0.0100    0.0100    0.0100    0.0100
    0.0100    0.0100    0.0100    0.0100    0.0100    0.0100    0.0100    0.0100
    0.0100    0.0100    0.0100    0.0100    0.0100    0.0100    0.0100    0.0100
    0.0100    0.0100    0.0100    0.0100    0.0100    0.0100    0.0100    0.0100
    0.0100    0.0100    0.0100    0.0100    0.0100    0.0100    0.0100    0.0100
    0.0100    0.0100    0.0100    0.0100    0.0100    0.0100    0.0100    0.0100
    0.0100    0.0100    0.0100    0.0100    0.0100    0.0100    0.0100    0.0100
    0.0100    0.0100    0.0100    0.0100    0.0100    0.0100    0.0100    0.0100
    0.0100    0.0100    0.0100    0.0100    0.0100    0.0100    0.0100    0.0100
    0.0100    0.0100    0.0100    0.0100    0.0100    0.0100    0.0100    0.0100
    0.0100    0.0100    0.0100    0.0100    0.0100    0.0100    0.0100    0.0100
    0.0100    0.0100    0.0100    0.0100    0.0100    0.0100    0.0100    0.0100
    0.0100    0.0100    0.0100    0.0100    0.0100    0.0100    0.0100    0.0100
    0.0100    0.0100    0.0100    0.0100    0.0100    0.0100    0.0100    0.0100
    0.0100    0.0100    0.0100    0.0100    0.0100    0.0100    0.0100    0.0100
    0.0100    0.0100    0.0100    0.0100    0.0100    0.0100    0.0100    0.0100
    0.0100    0.0100    0.0100    0.0100    0.0100    0.0100    0.0100    0.0100
    0.0100    0.0100    0.0100    0.0100    0.0100    0.0100    0.0100    0.0100
    0.0100    0.0100    0.0100    0.0100    0.0100    0.0100    0.0100    0.0100
    0.0100    0.0100    0.0100    0.0100    0.0100    0.0100    0.0100    0.0100
    0.0100    0.0100    0.0100    0.0100    0.0100    0.0100    0.0100    0.0100
    0.0100    0.0100    0.0100    0.0100    0.0100    0.0100    0.0100    0.0100
    0.0100    0.0100    0.0100    0.0100    0.0100    0.0100    0.0100    0.0100
    0.0100    0.0100    0.0100    0.0100    0.0100    0.0100    0.0100    0.0100
    0.0100    0.0100    0.0100    0.0100    0.0100    0.0100    0.0100    0.0100
    0.0100    0.0100    0.0100    0.0100    0.0100    0.0100    0.0100    0.0100
    0.0100    0.0100    0.0100    0.0100    0.0100    0.0100    0.0100    0.0100
    0.0100    0.0100    0.0100    0.0100    0.0100    0.0100    0.0100    0.0100
    0.0100    0.0100    0.0100    0.0100    0.0100    0.0100    0.0100    0.0100
    0.0100    0.0100    0.0100    0.0100    0.0100    0.0100    0.0100    0.0100
    0.0100    0.0100    0.0100    0.0100    0.0100    0.0100    0.0100    0.0100
    0.0100    0.0100    0.0100    0.0100    0.0100    0.0100    0.0100    0.0100
    0.0100    0.0100    0.0100    0.0100    0.0100    0.0100    0.0100    0.0100
    0.0100    0.0100    0.0100    0.0100    0.0100    0.0100    0.0100    0.0100
    0.0100    0.0100    0.0100    0.0100    0.0100    0.0100    0.0100    0.0100
    0.0100    0.0100    0.0100    0.0100    0.0100    0.0100    0.0100    0.0100
    0.0100    0.0100    0.0100    0.0100    0.0100    0.0100    0.0100    0.0100
    0.0100    0.0100    0.0100    0.0100    0.0100    0.0100    0.0100    0.0100
    0.0100    0.0100    0.0100    0.0100    0.0100    0.0100    0.0100    0.0100
    0.0100    0.0100    0.0100    0.0100    0.0100    0.0100    0.0100    0.0100
    0.0100    0.0100    0.0100    0.0100    0.0100    0.0100    0.0100    0.0100
    0.0100    0.0100    0.0100    0.0100    0.0100    0.0100    0.0100    0.0100
    0.0100    0.0100    0.0100    0.0100    0.0100    0.0100    0.0100    0.0100
    0.0100    0.0100    0.0100    0.0100    0.0100    0.0100    0.0100    0.0100
    0.0100    0.0100    0.0100    0.0100    0.0100    0.0100    0.0100    0.0100
    0.0100    0.0100    0.0100    0.0100    0.0100    0.0100    0.0100    0.0100
    0.0100    0.0100    0.0100    0.0100    0.0100    0.0100    0.0100    0.0100
    0.0100    0.0100    0.0100    0.0100    0.0100    0.0100    0.0100    0.0100
    0.0100    0.0100    0.0100    0.0100    0.0100    0.0100    0.0100    0.0100
    0.0100    0.0100    0.0100    0.0100    0.0100    0.0100    0.0100    0.0100
    0.0100    0.0100    0.0100    0.0100    0.0100    0.0100    0.0100    0.0100
    0.0100    0.0100    0.0100    0.0100    0.0100    0.0100    0.0100    0.0100
    0.0100    0.0100    0.0100    0.0100    0.0100    0.0100    0.0100    0.0100
    0.0100    0.0100    0.0100    0.0100    0.0100    0.0100    0.0100    0.0100
    0.0100    0.0100    0.0100    0.0100    0.0100    0.0100    0.0100    0.0100
    0.0100    0.0100    0.0100    0.0100    0.0100    0.0100    0.0100    0.0100
    0.0100    0.0100    0.0100    0.0100    0.0100    0.0100    0.0100    0.0100
    0.0100    0.0100    0.0100    0.0100    0.0100    0.0100    0.0100    0.0100
    0.0100    0.0100    0.0100    0.0100    0.0100    0.0100    0.0100    0.0100
    0.0100    0.0100    0.0100    0.0100    0.0100    0.0100    0.0100    0.0100
    0.0100    0.0100    0.0100    0.0100    0.0100    0.0100    0.0100    0.0100
    0.0100    0.0100    0.0100    0.0100    0.0100    0.0100    0.0100    0.0100
    0.0100    0.0100    0.0100    0.0100    0.0100    0.0100    0.0100    0.0100
    0.0100    0.0100    0.0100    0.0100    0.0100    0.0100    0.0100    0.0100
    0.0100    0.0100    0.0100    0.0100    0.0100    0.0100    0.0100    0.0100
    0.0100    0.0100    0.0100    0.0100    0.0100    0.0100    0.0100    0.0100
    0.0100    0.0100    0.0100    0.0100    0.0100    0.0100    0.0100    0.0100
    0.0100    0.0100    0.0100    0.0100    0.0100    0.0100    0.0100    0.0100
    0.0100    0.0100    0.0100    0.0100    0.0100    0.0100    0.0100    0.0100
    0.0100    0.0100    0.0100    0.0100    0.0100    0.0100    0.0100    0.0100
    0.0100    0.0100    0.0100    0.0100    0.0100    0.0100    0.0100    0.0100
    0.0100    0.0100    0.0100    0.0100    0.0100    0.0100    0.0100    0.0100
    0.0100    0.0100    0.0100    0.0100    0.0100    0.0100    0.0100    0.0100
    0.0100    0.0100
   </PP_RAB>
 </PP_MESH>
  <PP_LOCAL type="real"  size=" 602" columns="4">
   -4.6019694599e+01   -4.6018782454e+01   -4.6016028035e+01   -4.6011377389e+01
   -4.6004740595e+01   -4.5995991761e+01   -4.5984969031e+01   -4.5971474575e+01
   -4.5955274598e+01   -4.5936099335e+01   -4.5913643054e+01   -4.5887606293e+01
   -4.5857852279e+01   -4.5824328315e+01   -4.5787024612e+01   -4.5745966652e+01
   -4.5701207277e+01   -4.5652819177e+01   -4.5600888218e+01   -4.5545507811e+01
   -4.5486774372e+01   -4.5424783810e+01   -4.5359628934e+01   -4.5291397626e+01
   -4.5220171633e+01   -4.5146025860e+01   -4.5069028003e+01   -4.4989238472e+01
   -4.4906710483e+01   -4.4821490278e+01   -4.4733617416e+01   -4.4643125106e+01
   -4.4550040550e+01   -4.4454385302e+01   -4.4356175574e+01   -4.4255422590e+01
   -4.4152132847e+01   -4.4046308436e+01   -4.3937947284e+01   -4.3827043431e+01
   -4.3713587297e+01   -4.3597565949e+01   -4.3478963395e+01   -4.3357760895e+01
   -4.3233937314e+01   -4.3107469512e+01   -4.2978332787e+01   -4.2846501373e+01
   -4.2711948994e+01   -4.2574649477e+01   -4.2434577434e+01   -4.2291708989e+01
   -4.2146022519e+01   -4.1997499509e+01   -4.1846125338e+01   -4.1691890045e+01
   -4.1534789273e+01   -4.1374824752e+01   -4.1212005318e+01   -4.1046347109e+01
   -4.0877874398e+01   -4.0706619699e+01   -4.0532623971e+01   -4.0355936952e+01
   -4.0176616672e+01   -3.9994729468e+01   -3.9810349683e+01   -3.9623558960e+01
   -3.9434445660e+01   -3.9243104477e+01   -3.9049635423e+01   -3.8854143130e+01
   -3.8656736071e+01   -3.8457525774e+01   -3.8256626139e+01   -3.8054152613e+01
   -3.7850221567e+01   -3.7644949681e+01   -3.7438453402e+01   -3.7230848462e+01
   -3.7022249461e+01   -3.6812769517e+01   -3.6602519972e+01   -3.6391610151e+01
   -3.6180147168e+01   -3.5968235775e+01   -3.5755978240e+01   -3.5543474256e+01
   -3.5330820867e+01   -3.5118112415e+01   -3.4905440491e+01   -3.4692893898e+01
   -3.4480558612e+01   -3.4268517751e+01   -3.4056851530e+01   -3.3845637229e+01
   -3.3634949140e+01   -3.3424858529e+01   -3.3215433697e+01   -3.3006739546e+01
   -3.2798837872e+01   -3.2591787185e+01   -3.2385642644e+01   -3.2180455987e+01
   -3.1976275702e+01   -3.1773146296e+01   -3.1571108756e+01   -3.1370200428e+01
   -3.1170454942e+01   -3.0971902582e+01   -3.0774569001e+01   -3.0578476423e+01
   -3.0383643322e+01   -3.0190084878e+01   -2.9997811822e+01   -2.9806831497e+01
   -2.9617147987e+01   -2.9428762566e+01   -2.9241672339e+01   -2.9055872156e+01
   -2.8871354609e+01   -2.8688109588e+01   -2.8506125033e+01   -2.8325387702e+01
   -2.8145883024e+01   -2.7967595601e+01   -2.7790509966e+01   -2.7614610464e+01
   -2.7439882328e+01   -2.7266311551e+01   -2.7093885075e+01   -2.6922592330e+01
   -2.6752423812e+01   -2.6583372414e+01   -2.6415434114e+01   -2.6248605839e+01
   -2.6082888637e+01   -2.5918285555e+01   -2.5754801193e+01   -2.5592444488e+01
   -2.5431224751e+01   -2.5271154496e+01   -2.5112247812e+01   -2.4954519657e+01
   -2.4797987344e+01   -2.4642668030e+01   -2.4488580171e+01   -2.4335741920e+01
   -2.4184171780e+01   -2.4033886983e+01   -2.3884905279e+01   -2.3737241349e+01
   -2.3590910454e+01   -2.3445924172e+01   -2.3302293424e+01   -2.3160026152e+01
   -2.3019127590e+01   -2.2879601463e+01   -2.2741446543e+01   -2.2604661875e+01
   -2.2469239636e+01   -2.2335173926e+01   -2.2202450901e+01   -2.2071059737e+01
   -2.1940981905e+01   -2.1812201829e+01   -2.1684698243e+01   -2.1558451812e+01
   -2.1433440311e+01   -2.1309642217e+01   -2.1187036164e+01   -2.1065600097e+01
   -2.0945315269e+01   -2.0826160583e+01   -2.0708121182e+01   -2.0591178457e+01
   -2.0475321653e+01   -2.0360536127e+01   -2.0246814569e+01   -2.0134147028e+01
   -2.0022528771e+01   -1.9911954322e+01   -1.9802420633e+01   -1.9693925548e+01
   -1.9586467070e+01   -1.9480044439e+01   -1.9374656393e+01   -1.9270301411e+01
   -1.9166978461e+01   -1.9064684861e+01   -1.8963419036e+01   -1.8863177498e+01
   -1.8763957566e+01   -1.8665755021e+01   -1.8568564712e+01   -1.8472382048e+01
   -1.8377198843e+01   -1.8283009617e+01   -1.8189804210e+01   -1.8097574350e+01
   -1.8006309754e+01   -1.7915998978e+01   -1.7826631618e+01   -1.7738194078e+01
   -1.7650674607e+01   -1.7564059315e+01   -1.7478334514e+01   -1.7393486538e+01
   -1.7309500662e+01   -1.7226362732e+01   -1.7144058130e+01   -1.7062572228e+01
   -1.6981890533e+01   -1.6901998888e+01   -1.6822882518e+01   -1.6744527996e+01
   -1.6666921457e+01   -1.6590049060e+01   -1.6513898653e+01   -1.6438456657e+01
   -1.6363711399e+01   -1.6289651412e+01   -1.6216263991e+01   -1.6143539749e+01
   -1.6071467518e+01   -1.6000037089e+01   -1.5929240140e+01   -1.5859066596e+01
   -1.5789508574e+01   -1.5720558262e+01   -1.5652206983e+01   -1.5584447693e+01
   -1.5517272710e+01   -1.5450674371e+01   -1.5384645506e+01   -1.5319178490e+01
   -1.5254266143e+01   -1.5189901763e+01   -1.5126078124e+01   -1.5062788605e+01
   -1.5000026686e+01   -1.4937785388e+01   -1.4876058570e+01   -1.4814839964e+01
   -1.4754122881e+01   -1.4693901588e+01   -1.4634170049e+01   -1.4574921891e+01
   -1.4516151700e+01   -1.4457853682e+01   -1.4400021796e+01   -1.4342650877e+01
   -1.4285735394e+01   -1.4229269594e+01   -1.4173248555e+01   -1.4117667014e+01
   -1.4062519456e+01   -1.4007801204e+01   -1.3953507261e+01   -1.3899632311e+01
   -1.3846171918e+01   -1.3793121321e+01   -1.3740475458e+01   -1.3688230038e+01
   -1.3636380553e+01   -1.3584922206e+01   -1.3533850802e+01   -1.3483162088e+01
   -1.3432851537e+01   -1.3382915011e+01   -1.3333348516e+01   -1.3284147793e+01
   -1.3235308731e+01   -1.3186827588e+01   -1.3138700380e+01   -1.3090922993e+01
   -1.3043491933e+01   -1.2996403450e+01   -1.2949653535e+01   -1.2903238804e+01
   -1.2857155723e+01   -1.2811400551e+01   -1.2765969826e+01   -1.2720860279e+01
   -1.2676068446e+01   -1.2631590764e+01   -1.2587424217e+01   -1.2543565554e+01
   -1.2500011308e+01   -1.2456758494e+01   -1.2413804080e+01   -1.2371144873e+01
   -1.2328777727e+01   -1.2286699873e+01   -1.2244908358e+01   -1.2203400004e+01
   -1.2162172146e+01   -1.2121222014e+01   -1.2080546708e+01   -1.2040143349e+01
   -1.2000009436e+01   -1.1960142283e+01   -1.1920539014e+01   -1.1881197153e+01
   -1.1842114211e+01   -1.1803287595e+01   -1.1764714573e+01   -1.1726392920e+01
   -1.1688320196e+01   -1.1650493841e+01   -1.1612911449e+01   -1.1575570825e+01
   -1.1538469644e+01   -1.1501605395e+01   -1.1464975954e+01   -1.1428579162e+01
   -1.1392412797e+01   -1.1356474418e+01   -1.1320762135e+01   -1.1285273832e+01
   -1.1250007341e+01   -1.1214960440e+01   -1.1180131292e+01   -1.1145517879e+01
   -1.1111118095e+01   -1.1076929907e+01   -1.1042951532e+01   -1.1009181046e+01
   -1.0975616416e+01   -1.0942255760e+01   -1.0909097358e+01   -1.0876139376e+01
   -1.0843379858e+01   -1.0810817045e+01   -1.0778449286e+01   -1.0746274831e+01
   -1.0714291808e+01   -1.0682498553e+01   -1.0650893487e+01   -1.0619474945e+01
   -1.0588241141e+01   -1.0557190479e+01   -1.0526321460e+01   -1.0495632497e+01
   -1.0465121900e+01   -1.0434788112e+01   -1.0404629721e+01   -1.0374645214e+01
   -1.0344833001e+01   -1.0315191542e+01   -1.0285719517e+01   -1.0256415482e+01
   -1.0227277954e+01   -1.0198305387e+01   -1.0169496558e+01   -1.0140850089e+01
   -1.0112364602e+01   -1.0084038543e+01   -1.0055870770e+01   -1.0027859975e+01
   -1.0000004846e+01   -9.9723039397e+00   -9.9447560600e+00   -9.9173600106e+00
   -9.8901145399e+00   -9.8630183263e+00   -9.8360700984e+00   -9.8092687739e+00
   -9.7826131596e+00   -9.7561020607e+00   -9.7297341162e+00   -9.7035083568e+00
   -9.6774236451e+00   -9.6514788432e+00   -9.6256727135e+00   -9.6000041751e+00
   -9.5744722162e+00   -9.5490757522e+00   -9.5238136815e+00   -9.4986847927e+00
   -9.4736881992e+00   -9.4488228670e+00   -9.4240877620e+00   -9.3994817571e+00
   -9.3750038651e+00   -9.3506531723e+00   -9.3264286926e+00   -9.3023294403e+00
   -9.2783542769e+00   -9.2545024085e+00   -9.2307728994e+00   -9.2071648094e+00
   -9.1836771464e+00   -9.1603089317e+00   -9.1370593736e+00   -9.1139275759e+00
   -9.0909126423e+00   -9.0680135803e+00   -9.0452295583e+00   -9.0225597791e+00
   -9.0000033882e+00   -8.9775595312e+00   -8.9552272250e+00   -8.9330057586e+00
   -8.9108943365e+00   -8.8888921440e+00   -8.8669983577e+00   -8.8452120395e+00
   -8.8235325464e+00   -8.8019591020e+00   -8.7804909293e+00   -8.7591272246e+00
   -8.7378671304e+00   -8.7167100203e+00   -8.6956551538e+00   -8.6747017904e+00
   -8.6538491531e+00   -8.6330964439e+00   -8.6124430591e+00   -8.5918882926e+00
   -8.5714314385e+00   -8.5510717536e+00   -8.5308084789e+00   -8.5106410396e+00
   -8.4905687628e+00   -8.4705909753e+00   -8.4507069742e+00   -8.4309160202e+00
   -8.4112175739e+00   -8.3916109936e+00   -8.3720956375e+00   -8.3526708491e+00
   -8.3333358910e+00   -8.3140902646e+00   -8.2949333579e+00   -8.2758645593e+00
   -8.2568832568e+00   -8.2379887212e+00   -8.2191804769e+00   -8.2004579479e+00
   -8.1818205510e+00   -8.1632677028e+00   -8.1447987325e+00   -8.1264131266e+00
   -8.1081103653e+00   -8.0898898924e+00   -8.0717511518e+00   -8.0536935371e+00
   -8.0357164815e+00   -8.0178195259e+00   -8.0000021400e+00   -7.9822637936e+00
   -7.9646039499e+00   -7.9470219766e+00   -7.9295174775e+00   -7.9120899472e+00
   -7.8947388801e+00   -7.8774637707e+00   -7.8602640406e+00   -7.8431392286e+00
   -7.8260888956e+00   -7.8091125596e+00   -7.7922097386e+00   -7.7753799345e+00
   -7.7586225889e+00   -7.7419373375e+00   -7.7253237210e+00   -7.7087812796e+00
   -7.6923095540e+00   -7.6759080198e+00   -7.6595762487e+00   -7.6433138483e+00
   -7.6271203805e+00   -7.6109954072e+00   -7.5949384903e+00   -7.5789490893e+00
   -7.5630268842e+00   -7.5471714608e+00   -7.5313824014e+00   -7.5156592885e+00
   -7.5000016746e+00   -7.4844091014e+00   -7.4688812459e+00   -7.4534177099e+00
   -7.4380180951e+00   -7.4226820034e+00   -7.4074089827e+00   -7.3921986486e+00
   -7.3770506706e+00   -7.3619646691e+00   -7.3469402644e+00   -7.3319770767e+00
   -7.3170746569e+00   -7.3022326761e+00   -7.2874508029e+00   -7.2727286754e+00
   -7.2580659316e+00   -7.2434622094e+00   -7.2289170692e+00   -7.2144302200e+00
   -7.2000013366e+00   -7.1856300738e+00   -7.1713160864e+00   -7.1570590294e+00
   -7.1428584785e+00   -7.1287141647e+00   -7.1146257751e+00   -7.1005929804e+00
   -7.0866154518e+00   -7.0726928602e+00   -7.0588248026e+00   -7.0450110165e+00
   -7.0312512074e+00   -7.0175450617e+00   -7.0038922655e+00   -6.9902925053e+00
   -6.9767454048e+00   -6.9632506935e+00   -6.9498081014e+00   -6.9364173292e+00
   -6.9230780778e+00   -6.9097900482e+00   -6.8965528964e+00   -6.8833663304e+00
   -6.8702301094e+00   -6.8571439484e+00   -6.8441075621e+00   -6.8311206654e+00
   -6.8181829518e+00   -6.8052940951e+00   -6.7924538887e+00   -6.7796620607e+00
   -6.7669183394e+00   -6.7542224527e+00   -6.7415741289e+00   -6.7289730195e+00
   -6.7164189327e+00   -6.7039116171e+00   -6.6914508133e+00   -6.6790362623e+00
   -6.6666677048e+00   -6.6543448398e+00   -6.6420674143e+00   -6.6298352225e+00
   -6.6176480173e+00   -6.6055055515e+00   -6.5934075782e+00   -6.5813538487e+00
   -6.5693440388e+00   -6.5573779912e+00   -6.5454554704e+00   -6.5335762408e+00
   -6.5217400667e+00   -6.5099467125e+00   -6.4981959067e+00   -6.4864874109e+00
   -6.4748210438e+00   -6.4631965809e+00   -6.4516137974e+00   -6.4400724687e+00
   -6.4285723703e+00   -6.4171132152e+00   -6.4056948344e+00   -6.3943170286e+00
   -6.3829795836e+00   -6.3716822853e+00   -6.3604249194e+00   -6.3492072651e+00
   -6.3380290476e+00   -6.3268901305e+00   -6.3157903099e+00   -6.3047293814e+00
   -6.2937071409e+00   -6.2827233842e+00   -6.2717778860e+00   -6.2608704132e+00
   -6.2500008235e+00   -6.2391689224e+00   -6.2283745151e+00   -6.2176174070e+00
   -6.2068974034e+00   -6.1962142806e+00   -6.1855678333e+00   -6.1749579188e+00
   -6.1643843517e+00   -6.1538469463e+00   -6.1433455170e+00   -6.1328798782e+00
   -6.1224498137e+00   -6.1120551322e+00   -6.1016956965e+00   -6.0913713297e+00
   -6.0810818548e+00   -6.0708270949e+00   -6.0606068730e+00   -6.0504209858e+00
   -6.0402692433e+00   -6.0301515191e+00   -6.0200676445e+00   -6.0100174508e+00
   -6.0000007692e+00   -5.9900174311e+00
  </PP_LOCAL>
 <PP_NONLOCAL>
   <PP_BETA.1
       type="real"
       size=" 602"
       columns="4"
       index="1"
       angular_momentum="0"
       cutoff_radius_index=" 230"
       cutoff_radius="    2.2900000000E+00" >
    0.0000000000E+00   -4.2185586607E-02   -8.4325280704E-02   -1.2637326156E-01
   -1.6828385185E-01   -2.1001158904E-01   -2.5151129637E-01   -2.9273815320E-01
   -3.3364776486E-01   -3.7419623151E-01   -4.1434021621E-01   -4.5403701183E-01
   -4.9324460681E-01   -5.3192174964E-01   -5.7002801183E-01   -6.0752384942E-01
   -6.4437066276E-01   -6.8053085454E-01   -7.1596788592E-01   -7.5064633076E-01
   -7.8453192765E-01   -8.1759162983E-01   -8.4979365280E-01   -8.8110751969E-01
   -9.1150410404E-01   -9.4095567012E-01   -9.6943591086E-01   -9.9691998284E-01
   -1.0233845387E+00   -1.0488077570E+00   -1.0731693688E+00   -1.0964506820E+00
   -1.1186346024E+00   -1.1397056516E+00   -1.1596499830E+00   -1.1784553934E+00
   -1.1961113331E+00   -1.2126089115E+00   -1.2279409014E+00   -1.2421017390E+00
   -1.2550875213E+00   -1.2668960012E+00   -1.2775265786E+00   -1.2869802898E+00
   -1.2952597928E+00   -1.3023693510E+00   -1.3083148132E+00   -1.3131035917E+00
   -1.3167446367E+00   -1.3192484097E+00   -1.3206268521E+00   -1.3208933533E+00
   -1.3200627174E+00   -1.3181511226E+00   -1.3151760842E+00   -1.3111564146E+00
   -1.3061121731E+00   -1.3000646321E+00   -1.2930362143E+00   -1.2850504610E+00
   -1.2761319653E+00   -1.2663063308E+00   -1.2556001184E+00   -1.2440407776E+00
   -1.2316566113E+00   -1.2184767063E+00   -1.2045308693E+00   -1.1898495825E+00
   -1.1744639482E+00   -1.1584056006E+00   -1.1417066701E+00   -1.1243997179E+00
   -1.1065176746E+00   -1.0880937873E+00   -1.0691615293E+00   -1.0497545699E+00
   -1.0299067041E+00   -1.0096517927E+00   -9.8902370327E-01   -9.6805625072E-01
   -9.4678313984E-01   -9.2523790807E-01   -9.0345386944E-01   -8.8146405967E-01
   -8.5930118238E-01   -8.3699755670E-01   -8.1458506618E-01   -7.9209510929E-01