
     Program PWSCF v.6.8 starts on 29Apr2022 at  6:21:16 

     This program is part of the open-source Quantum ESPRESSO suite
     for quantum simulation of materials; please cite
         "P. Giannozzi et al., J. Phys.:Condens. Matter 21 395502 (2009);
         "P. Giannozzi et al., J. Phys.:Condens. Matter 29 465901 (2017);
         "P. Giannozzi et al., J. Chem. Phys. 152 154105 (2020);
          URL http://www.quantum-espresso.org", 
     in publications or presentations arising from this work. More details at
     http://www.quantum-espresso.org/quote

     Parallel version (MPI), running on     1 processors

     MPI processes distributed on     1 nodes
     245 MiB available memory on the printing compute node when the environment starts
 
     Waiting for input...
     Reading input from standard input

     Current dimensions of program PWSCF are:
     Max number of different atomic species (ntypx) = 10
     Max number of k-points (npk) =  40000
     Max angular momentum in pseudopotentials (lmaxx) =  4

     Subspace diagonalization in iterative solution of the eigenvalue problem:
     a serial algorithm will be used

 
     G-vector sticks info
     --------------------
     sticks:   dense  smooth     PW     G-vecs:    dense   smooth      PW
     Sum         361     361    121                 4477     4477     941
 
     Using Slab Decomposition
 


     bravais-lattice index     =            2
     lattice parameter (alat)  =      10.2000  a.u.
     unit-cell volume          =     265.3020 (a.u.)^3
     number of atoms/cell      =            2
     number of atomic types    =            1
     number of electrons       =         8.00
     number of Kohn-Sham states=           30
     kinetic-energy cutoff     =      25.0000  Ry
     charge density cutoff     =     100.0000  Ry
     scf convergence threshold =      1.0E-10
     mixing beta               =       0.7000
     number of iterations used =            8  plain     mixing
     Exchange-correlation= PZ
                           (   1   1   0   0   0   0   0)

     celldm(1)=  10.200000  celldm(2)=   0.000000  celldm(3)=   0.000000
     celldm(4)=   0.000000  celldm(5)=   0.000000  celldm(6)=   0.000000

     crystal axes: (cart. coord. in units of alat)
               a(1) = (  -0.500000   0.000000   0.500000 )  
               a(2) = (   0.000000   0.500000   0.500000 )  
               a(3) = (  -0.500000   0.500000   0.000000 )  

     reciprocal axes: (cart. coord. in units 2 pi/alat)
               b(1) = ( -1.000000 -1.000000  1.000000 )  
               b(2) = (  1.000000  1.000000  1.000000 )  
               b(3) = ( -1.000000  1.000000 -1.000000 )  


     PseudoPot. # 1 for Si read from file:
     /home/agrim/Downloads/qe-6.8/pseudo/Si.bhs
     MD5 check sum: a27a73b327aba9ec6bb45d294069e23f
     Pseudo is Norm-conserving, Zval =  4.0
     From published tables, or generated by old fitcar code (analytical format)
     Using radial grid of  431 points,  2 beta functions with: 
                l(1) =   0
                l(2) =   1

     atomic species   valence    mass     pseudopotential
        Si             4.00    28.08600     Si( 1.00)

     No symmetry found


                                    s                        frac. trans.

      isym =  1     identity                                     

 cryst.   s( 1) = (     1          0          0      )
                  (     0          1          0      )
                  (     0          0          1      )

 cart.    s( 1) = (  1.0000000  0.0000000  0.0000000 )
                  (  0.0000000  1.0000000  0.0000000 )
                  (  0.0000000  0.0000000  1.0000000 )


     point group C_1 (1)    
     there are  1 classes
     the character table:

       E    
A      1.00

     the symmetry operations in each class and the name of the first element:

     E        1
          identity                                               

   Cartesian axes

     site n.     atom                  positions (alat units)
         1           Si  tau(   1) = (   0.1250000  -0.1250000  -0.1250000  )
         2           Si  tau(   2) = (  -0.1250000   0.1250000   0.1250000  )

   Crystallographic axes

     site n.     atom                  positions (cryst. coord.)
         1           Si  tau(   1) = ( -0.1250000 -0.1250000 -0.1250000  )
         2           Si  tau(   2) = (  0.1250000  0.1250000  0.1250000  )

     number of k points=    64
                       cart. coord. in units 2pi/alat
        k(    1) = (   0.0000000   0.0000000   0.0000000), wk =   0.0312500
        k(    2) = (  -0.2500000   0.2500000  -0.2500000), wk =   0.0312500
        k(    3) = (  -0.5000000   0.5000000  -0.5000000), wk =   0.0312500
        k(    4) = (  -0.7500000   0.7500000  -0.7500000), wk =   0.0312500
        k(    5) = (   0.2500000   0.2500000   0.2500000), wk =   0.0312500
        k(    6) = (   0.0000000   0.5000000   0.0000000), wk =   0.0312500
        k(    7) = (  -0.2500000   0.7500000  -0.2500000), wk =   0.0312500
        k(    8) = (  -0.5000000   1.0000000  -0.5000000), wk =   0.0312500
        k(    9) = (   0.5000000   0.5000000   0.5000000), wk =   0.0312500
        k(   10) = (   0.2500000   0.7500000   0.2500000), wk =   0.0312500
        k(   11) = (   0.0000000   1.0000000   0.0000000), wk =   0.0312500
        k(   12) = (  -0.2500000   1.2500000  -0.2500000), wk =   0.0312500
        k(   13) = (   0.7500000   0.7500000   0.7500000), wk =   0.0312500
        k(   14) = (   0.5000000   1.0000000   0.5000000), wk =   0.0312500
        k(   15) = (   0.2500000   1.2500000   0.2500000), wk =   0.0312500
        k(   16) = (   0.0000000   1.5000000   0.0000000), wk =   0.0312500
        k(   17) = (  -0.2500000  -0.2500000   0.2500000), wk =   0.0312500
        k(   18) = (  -0.5000000   0.0000000   0.0000000), wk =   0.0312500
        k(   19) = (  -0.7500000   0.2500000  -0.2500000), wk =   0.0312500
        k(   20) = (  -1.0000000   0.5000000  -0.5000000), wk =   0.0312500
        k(   21) = (   0.0000000   0.0000000   0.5000000), wk =   0.0312500
        k(   22) = (  -0.2500000   0.2500000   0.2500000), wk =   0.0312500
        k(   23) = (  -0.5000000   0.5000000   0.0000000), wk =   0.0312500
        k(   24) = (  -0.7500000   0.7500000  -0.2500000), wk =   0.0312500
        k(   25) = (   0.2500000   0.2500000   0.7500000), wk =   0.0312500
        k(   26) = (   0.0000000   0.5000000   0.5000000), wk =   0.0312500
        k(   27) = (  -0.2500000   0.7500000   0.2500000), wk =   0.0312500
        k(   28) = (  -0.5000000   1.0000000   0.0000000), wk =   0.0312500
        k(   29) = (   0.5000000   0.5000000   1.0000000), wk =   0.0312500
        k(   30) = (   0.2500000   0.7500000   0.7500000), wk =   0.0312500
        k(   31) = (   0.0000000   1.0000000   0.5000000), wk =   0.0312500
        k(   32) = (  -0.2500000   1.2500000   0.2500000), wk =   0.0312500
        k(   33) = (  -0.5000000  -0.5000000   0.5000000), wk =   0.0312500
        k(   34) = (  -0.7500000  -0.2500000   0.2500000), wk =   0.0312500
        k(   35) = (  -1.0000000   0.0000000   0.0000000), wk =   0.0312500
        k(   36) = (  -1.2500000   0.2500000  -0.2500000), wk =   0.0312500
        k(   37) = (  -0.2500000  -0.2500000   0.7500000), wk =   0.0312500
        k(   38) = (  -0.5000000   0.0000000   0.5000000), wk =   0.0312500
        k(   39) = (  -0.7500000   0.2500000   0.2500000), wk =   0.0312500
        k(   40) = (  -1.0000000   0.5000000   0.0000000), wk =   0.0312500
        k(   41) = (   0.0000000   0.0000000   1.0000000), wk =   0.0312500
        k(   42) = (  -0.2500000   0.2500000   0.7500000), wk =   0.0312500
        k(   43) = (  -0.5000000   0.5000000   0.5000000), wk =   0.0312500
        k(   44) = (  -0.7500000   0.7500000   0.2500000), wk =   0.0312500
        k(   45) = (   0.2500000   0.2500000   1.2500000), wk =   0.0312500
        k(   46) = (   0.0000000   0.5000000   1.0000000), wk =   0.0312500
        k(   47) = (  -0.2500000   0.7500000   0.7500000), wk =   0.0312500
        k(   48) = (  -0.5000000   1.0000000   0.5000000), wk =   0.0312500
        k(   49) = (  -0.7500000  -0.7500000   0.7500000), wk =   0.0312500
        k(   50) = (  -1.0000000  -0.5000000   0.5000000), wk =   0.0312500
        k(   51) = (  -1.2500000  -0.2500000   0.2500000), wk =   0.0312500
        k(   52) = (  -1.5000000   0.0000000   0.0000000), wk =   0.0312500
        k(   53) = (  -0.5000000  -0.5000000   1.0000000), wk =   0.0312500
        k(   54) = (  -0.7500000  -0.2500000   0.7500000), wk =   0.0312500
        k(   55) = (  -1.0000000   0.0000000   0.5000000), wk =   0.0312500
        k(   56) = (  -1.2500000   0.2500000   0.2500000), wk =   0.0312500
        k(   57) = (  -0.2500000  -0.2500000   1.2500000), wk =   0.0312500
        k(   58) = (  -0.5000000   0.0000000   1.0000000), wk =   0.0312500
        k(   59) = (  -0.7500000   0.2500000   0.7500000), wk =   0.0312500
        k(   60) = (  -1.0000000   0.5000000   0.5000000), wk =   0.0312500
        k(   61) = (   0.0000000   0.0000000   1.5000000), wk =   0.0312500
        k(   62) = (  -0.2500000   0.2500000   1.2500000), wk =   0.0312500
        k(   63) = (  -0.5000000   0.5000000   1.0000000), wk =   0.0312500
        k(   64) = (  -0.7500000   0.7500000   0.7500000), wk =   0.0312500

                       cryst. coord.
        k(    1) = (   0.0000000   0.0000000   0.0000000), wk =   0.0312500
        k(    2) = (   0.0000000   0.0000000   0.2500000), wk =   0.0312500
        k(    3) = (   0.0000000   0.0000000   0.5000000), wk =   0.0312500
        k(    4) = (   0.0000000   0.0000000   0.7500000), wk =   0.0312500
        k(    5) = (   0.0000000   0.2500000   0.0000000), wk =   0.0312500
        k(    6) = (   0.0000000   0.2500000   0.2500000), wk =   0.0312500
        k(    7) = (   0.0000000   0.2500000   0.5000000), wk =   0.0312500
        k(    8) = (   0.0000000   0.2500000   0.7500000), wk =   0.0312500
        k(    9) = (   0.0000000   0.5000000   0.0000000), wk =   0.0312500
        k(   10) = (   0.0000000   0.5000000   0.2500000), wk =   0.0312500
        k(   11) = (   0.0000000   0.5000000   0.5000000), wk =   0.0312500
        k(   12) = (   0.0000000   0.5000000   0.7500000), wk =   0.0312500
        k(   13) = (   0.0000000   0.7500000   0.0000000), wk =   0.0312500
        k(   14) = (   0.0000000   0.7500000   0.2500000), wk =   0.0312500
        k(   15) = (   0.0000000   0.7500000   0.5000000), wk =   0.0312500
        k(   16) = (   0.0000000   0.7500000   0.7500000), wk =   0.0312500
        k(   17) = (   0.2500000   0.0000000   0.0000000), wk =   0.0312500
        k(   18) = (   0.2500000   0.0000000   0.2500000), wk =   0.0312500
        k(   19) = (   0.2500000   0.0000000   0.5000000), wk =   0.0312500
        k(   20) = (   0.2500000   0.0000000   0.7500000), wk =   0.0312500
        k(   21) = (   0.2500000   0.2500000   0.0000000), wk =   0.0312500
        k(   22) = (   0.2500000   0.2500000   0.2500000), wk =   0.0312500
        k(   23) = (   0.2500000   0.2500000   0.5000000), wk =   0.0312500
        k(   24) = (   0.2500000   0.2500000   0.7500000), wk =   0.0312500
        k(   25) = (   0.2500000   0.5000000   0.0000000), wk =   0.0312500
        k(   26) = (   0.2500000   0.5000000   0.2500000), wk =   0.0312500
        k(   27) = (   0.2500000   0.5000000   0.5000000), wk =   0.0312500
        k(   28) = (   0.2500000   0.5000000   0.7500000), wk =   0.0312500
        k(   29) = (   0.2500000   0.7500000   0.0000000), wk =   0.0312500
        k(   30) = (   0.2500000   0.7500000   0.2500000), wk =   0.0312500
        k(   31) = (   0.2500000   0.7500000   0.5000000), wk =   0.0312500
        k(   32) = (   0.2500000   0.7500000   0.7500000), wk =   0.0312500
        k(   33) = (   0.5000000   0.0000000   0.0000000), wk =   0.0312500
        k(   34) = (   0.5000000   0.0000000   0.2500000), wk =   0.0312500
        k(   35) = (   0.5000000   0.0000000   0.5000000), wk =   0.0312500
        k(   36) = (   0.5000000   0.0000000   0.7500000), wk =   0.0312500
        k(   37) = (   0.5000000   0.2500000   0.0000000), wk =   0.0312500
        k(   38) = (   0.5000000   0.2500000   0.2500000), wk =   0.0312500
        k(   39) = (   0.5000000   0.2500000   0.5000000), wk =   0.0312500
        k(   40) = (   0.5000000   0.2500000   0.7500000), wk =   0.0312500
        k(   41) = (   0.5000000   0.5000000   0.0000000), wk =   0.0312500
        k(   42) = (   0.5000000   0.5000000   0.2500000), wk =   0.0312500
        k(   43) = (   0.5000000   0.5000000   0.5000000), wk =   0.0312500
        k(   44) = (   0.5000000   0.5000000   0.7500000), wk =   0.0312500
        k(   45) = (   0.5000000   0.7500000   0.0000000), wk =   0.0312500
        k(   46) = (   0.5000000   0.7500000   0.2500000), wk =   0.0312500
        k(   47) = (   0.5000000   0.7500000   0.5000000), wk =   0.0312500
        k(   48) = (   0.5000000   0.7500000   0.7500000), wk =   0.0312500
        k(   49) = (   0.7500000   0.0000000   0.0000000), wk =   0.0312500
        k(   50) = (   0.7500000   0.0000000   0.2500000), wk =   0.0312500
        k(   51) = (   0.7500000   0.0000000   0.5000000), wk =   0.0312500
        k(   52) = (   0.7500000   0.0000000   0.7500000), wk =   0.0312500
        k(   53) = (   0.7500000   0.2500000   0.0000000), wk =   0.0312500
        k(   54) = (   0.7500000   0.2500000   0.2500000), wk =   0.0312500
        k(   55) = (   0.7500000   0.2500000   0.5000000), wk =   0.0312500
        k(   56) = (   0.7500000   0.2500000   0.7500000), wk =   0.0312500
        k(   57) = (   0.7500000   0.5000000   0.0000000), wk =   0.0312500
        k(   58) = (   0.7500000   0.5000000   0.2500000), wk =   0.0312500
        k(   59) = (   0.7500000   0.5000000   0.5000000), wk =   0.0312500
        k(   60) = (   0.7500000   0.5000000   0.7500000), wk =   0.0312500
        k(   61) = (   0.7500000   0.7500000   0.0000000), wk =   0.0312500
        k(   62) = (   0.7500000   0.7500000   0.2500000), wk =   0.0312500
        k(   63) = (   0.7500000   0.7500000   0.5000000), wk =   0.0312500
        k(   64) = (   0.7500000   0.7500000   0.7500000), wk =   0.0312500

     Dense  grid:     4477 G-vectors     FFT dimensions: (  24,  24,  24)

     Dynamical RAM for                 wfc:       0.26 MB

     Dynamical RAM for     wfc (w. buffer):      16.66 MB

     Dynamical RAM for           str. fact:       0.07 MB

     Dynamical RAM for           local pot:       0.00 MB

     Dynamical RAM for          nlocal pot:       0.07 MB

     Dynamical RAM for                qrad:       0.07 MB

     Dynamical RAM for          rho,v,vnew:       0.52 MB

     Dynamical RAM for               rhoin:       0.17 MB

     Dynamical RAM for            rho*nmix:       1.09 MB

     Dynamical RAM for           G-vectors:       0.29 MB

     Dynamical RAM for          h,s,v(r/c):       0.16 MB

     Dynamical RAM for          <psi|beta>:       0.00 MB

     Dynamical RAM for                 psi:       0.51 MB

     Dynamical RAM for                hpsi:       0.51 MB

     Dynamical RAM for      wfcinit/wfcrot:       0.53 MB

     Estimated static dynamical RAM per process >      18.52 MB

     Estimated max dynamical RAM per process >      20.80 MB

     Initial potential from superposition of free atoms

     starting charge    7.99900, renormalised to    8.00000
     Starting wfcs are random

     total cpu time spent up to now is        3.0 secs

     Self-consistent Calculation

     iteration #  1     ecut=    25.00 Ry     beta= 0.70
     Davidson diagonalization with overlap

---- Real-time Memory Report at c_bands before calling an iterative solver
           108 MiB given to the printing process from OS
             0 MiB allocation reported by mallinfo(arena+hblkhd)
           178 MiB available memory on the node where the printing process lives
------------------
     ethr =  1.00E-02,  avg # of iterations =  7.6

     Threshold (ethr) on eigenvalues was too large:
     Diagonalizing with lowered threshold

     Davidson diagonalization with overlap

---- Real-time Memory Report at c_bands before calling an iterative solver
           111 MiB given to the printing process from OS
             0 MiB allocation reported by mallinfo(arena+hblkhd)
           171 MiB available memory on the node where the printing process lives
------------------
     ethr =  8.75E-04,  avg # of iterations =  1.1

     total cpu time spent up to now is        9.5 secs

     total energy              =     -15.86967725 Ry
     estimated scf accuracy    <       0.06991729 Ry

     iteration #  2     ecut=    25.00 Ry     beta= 0.70
     Davidson diagonalization with overlap

---- Real-time Memory Report at c_bands before calling an iterative solver
           111 MiB given to the printing process from OS
             0 MiB allocation reported by mallinfo(arena+hblkhd)
           188 MiB available memory on the node where the printing process lives
------------------
     ethr =  8.74E-04,  avg # of iterations =  1.0

     total cpu time spent up to now is       11.2 secs

     total energy              =     -15.87379788 Ry
     estimated scf accuracy    <       0.00200803 Ry

     iteration #  3     ecut=    25.00 Ry     beta= 0.70
     Davidson diagonalization with overlap

---- Real-time Memory Report at c_bands before calling an iterative solver
           111 MiB given to the printing process from OS
             0 MiB allocation reported by mallinfo(arena+hblkhd)
           200 MiB available memory on the node where the printing process lives
------------------
     ethr =  2.51E-05,  avg # of iterations =  2.9

     total cpu time spent up to now is       12.9 secs

     total energy              =     -15.87381135 Ry
     estimated scf accuracy    <       0.00006436 Ry

     iteration #  4     ecut=    25.00 Ry     beta= 0.70
     Davidson diagonalization with overlap

---- Real-time Memory Report at c_bands before calling an iterative solver
           111 MiB given to the printing process from OS
             0 MiB allocation reported by mallinfo(arena+hblkhd)
           198 MiB available memory on the node where the printing process lives
------------------
     ethr =  8.04E-07,  avg # of iterations =  3.3

     total cpu time spent up to now is       14.6 secs

     total energy              =     -15.87381196 Ry
     estimated scf accuracy    <       0.00000002 Ry

     iteration #  5     ecut=    25.00 Ry     beta= 0.70
     Davidson diagonalization with overlap

---- Real-time Memory Report at c_bands before calling an iterative solver
           112 MiB given to the printing process from OS
             0 MiB allocation reported by mallinfo(arena+hblkhd)
           196 MiB available memory on the node where the printing process lives
------------------
     ethr =  2.78E-10,  avg # of iterations =  2.0

     total cpu time spent up to now is       16.0 secs

     total energy              =     -15.87381197 Ry
     estimated scf accuracy    <          2.5E-10 Ry

     iteration #  6     ecut=    25.00 Ry     beta= 0.70
     Davidson diagonalization with overlap

---- Real-time Memory Report at c_bands before calling an iterative solver
           112 MiB given to the printing process from OS
             0 MiB allocation reported by mallinfo(arena+hblkhd)
           196 MiB available memory on the node where the printing process lives
------------------
     ethr =  3.15E-12,  avg # of iterations =  1.0

     total cpu time spent up to now is       17.4 secs

     End of self-consistent calculation

          k = 0.0000 0.0000 0.0000 (   537 PWs)   bands (ev):

    -5.8544   6.2037   6.2037   6.2037   8.7432   8.7432   8.7432   9.5844
    13.8714  13.8714  13.9191  17.3506  17.3506  17.3506  21.3560  29.0995
    29.0995  29.0995  30.2225  30.2225  31.4378  31.4378  31.4378  35.7851
    35.7851  35.7851  40.7898  40.7898  40.7898  43.2268

     occupation numbers 
     1.0000   1.0000   1.0000   1.0000   0.0000   0.0000   0.0000   0.0000
     0.0000   0.0000   0.0000   0.0000   0.0000   0.0000   0.0000   0.0000
     0.0000   0.0000   0.0000   0.0000   0.0000   0.0000   0.0000   0.0000
     0.0000   0.0000   0.0000   0.0000   0.0000   0.0000

          k =-0.2500 0.2500-0.2500 (   564 PWs)   bands (ev):

    -5.0400   2.2481   5.4436   5.4436   8.1835   9.6743   9.6743  13.0615
    13.3128  13.3128  15.0084  17.8818  20.7684  20.7684  23.9735  23.9879
    23.9879  26.0854  30.0344  30.0344  32.4108  32.4108  33.7126  35.2149
    36.5068  38.0883  38.0883  39.4599  39.4599  40.4979

     occupation numbers 
     1.0000   1.0000   1.0000   1.0000   0.0000   0.0000   0.0000   0.0000
     0.0000   0.0000   0.0000   0.0000   0.0000   0.0000   0.0000   0.0000
     0.0000   0.0000   0.0000   0.0000   0.0000   0.0000   0.0000   0.0000
     0.0000   0.0000   0.0000   0.0000   0.0000   0.0000

          k =-0.5000 0.5000-0.5000 (   568 PWs)   bands (ev):

    -3.4661  -0.8472   5.0085   5.0085   7.6843   9.4734   9.4734  13.7444
    16.6667  16.6667  17.3918  17.4979  17.4979  19.0635  25.3201  26.0298
    27.7605  27.7605  27.8870  27.8870  31.7045  32.6579  32.6579  33.1943
    33.1943  34.4712  37.6167  38.2809  38.2809  39.0349

     occupation numbers 
     1.0000   1.0000   1.0000   1.0000   0.0000   0.0000   0.0000   0.0000
     0.0000   0.0000   0.0000   0.0000   0.0000   0.0000   0.0000   0.0000
     0.0000   0.0000   0.0000   0.0000   0.0000   0.0000   0.0000   0.0000
     0.0000   0.0000   0.0000   0.0000   0.0000   0.0000

          k =-0.7500 0.7500-0.7500 (   564 PWs)   bands (ev):

    -5.0400   2.2481   5.4436   5.4436   8.1835   9.6743   9.6743  13.0615
    13.3128  13.3128  15.0084  17.8818  20.7684  20.7684  23.9735  23.9879
    23.9879  26.0854  30.0344  30.0344  32.4108  32.4108  33.7126  35.2149
    36.5068  38.0883  38.0883  39.4599  39.4599  40.4979

     occupation numbers 
     1.0000   1.0000   1.0000   1.0000   0.0000   0.0000   0.0000   0.0000
     0.0000   0.0000   0.0000   0.0000   0.0000   0.0000   0.0000   0.0000
     0.0000   0.0000   0.0000   0.0000   0.0000   0.0000   0.0000   0.0000
     0.0000   0.0000   0.0000   0.0000   0.0000   0.0000

          k = 0.2500 0.2500 0.2500 (   564 PWs)   bands (ev):

    -5.0400   2.2481   5.4436   5.4436   8.1835   9.6743   9.6743  13.0615
    13.3128  13.3128  15.0084  17.8818  20.7684  20.7684  23.9735  23.9879
    23.9879  26.0854  30.0344  30.0344  32.4108  32.4108  33.7126  35.2149
    36.5068  38.0883  38.0883  39.4599  39.4599  40.4979

     occupation numbers 
     1.0000   1.0000   1.0000   1.0000   0.0000   0.0000   0.0000   0.0000
     0.0000   0.0000   0.0000   0.0000   0.0000   0.0000   0.0000   0.0000
     0.0000   0.0000   0.0000   0.0000   0.0000   0.0000   0.0000   0.0000
     0.0000   0.0000   0.0000   0.0000   0.0000   0.0000

          k = 0.0000 0.5000 0.0000 (   560 PWs)   bands (ev):

    -4.7537   2.7013   4.2954   4.2954   7.2305   9.2161  11.9343  11.9343
    14.1984  15.0877  17.4564  19.1265  19.1265  19.7900  23.4833  23.4833
    24.5336  26.2800  26.9702  30.9543  32.1448  33.1854  33.1854  35.5912
    35.5912  35.6803  36.3172  40.8270  41.2538  41.6081

     occupation numbers 
     1.0000   1.0000   1.0000   1.0000   0.0000   0.0000   0.0000   0.0000
     0.0000   0.0000   0.0000   0.0000   0.0000   0.0000   0.0000   0.0000
     0.0000   0.0000   0.0000   0.0000   0.0000   0.0000   0.0000   0.0000
     0.0000   0.0000   0.0000   0.0000   0.0000   0.0000

          k =-0.2500 0.7500-0.2500 (   558 PWs)   bands (ev):

    -3.0824  -0.2071   2.6083   3.9820   7.6015  10.5488  11.9096  12.0735
    16.3164  16.6671  18.3113  18.7831  19.0986  22.8714  23.8639  24.6316
    25.4945  25.6287  25.9850  29.0107  29.7235  31.2725  31.5894  33.8432
    35.1792  35.4092  35.5442  37.1454  38.1425  40.4031

     occupation numbers 
     1.0000   1.0000   1.0000   1.0000   0.0000   0.0000   0.0000   0.0000
     0.0000   0.0000   0.0000   0.0000   0.0000   0.0000   0.0000   0.0000
     0.0000   0.0000   0.0000   0.0000   0.0000   0.0000   0.0000   0.0000
     0.0000   0.0000   0.0000   0.0000   0.0000   0.0000

          k =-0.5000 1.0000-0.5000 (   554 PWs)   bands (ev):

    -3.7711   0.7108   2.3756   4.8732   8.5684  10.9721  11.2408  12.2953
    12.5386  15.7688  18.6893  19.3091  19.5249  22.7550  23.1627  23.4398
    24.7862  27.1911  27.8819  29.9454  30.8757  31.3554  32.7290  33.2608
    33.6072  35.4565  36.4130  37.3302  39.9719  40.3473

     occupation numbers 
     1.0000   1.0000   1.0000   1.0000   0.0000   0.0000   0.0000   0.0000
     0.0000   0.0000   0.0000   0.0000   0.0000   0.0000   0.0000   0.0000
     0.0000   0.0000   0.0000   0.0000   0.0000   0.0000   0.0000   0.0000
     0.0000   0.0000   0.0000   0.0000   0.0000   0.0000

          k = 0.5000 0.5000 0.5000 (   568 PWs)   bands (ev):

    -3.4661  -0.8472   5.0085   5.0085   7.6843   9.4734   9.4734  13.7444
    16.6667  16.6667  17.3918  17.4979  17.4979  19.0635  25.3201  26.0298
    27.7605  27.7605  27.8870  27.8870  31.7045  32.6579  32.6579  33.1943
    33.1943  34.4712  37.6167  38.2809  38.2809  39.0349

     occupation numbers 
     1.0000   1.0000   1.0000   1.0000   0.0000   0.0000   0.0000   0.0000
     0.0000   0.0000   0.0000   0.0000   0.0000   0.0000   0.0000   0.0000
     0.0000   0.0000   0.0000   0.0000   0.0000   0.0000   0.0000   0.0000
     0.0000   0.0000   0.0000   0.0000   0.0000   0.0000

          k = 0.2500 0.7500 0.2500 (   558 PWs)   bands (ev):

    -3.0824  -0.2071   2.6083   3.9820   7.6015  10.5488  11.9096  12.0735
    16.3164  16.6671  18.3113  18.7831  19.0986  22.8714  23.8639  24.6316
    25.4945  25.6287  25.9850  29.0107  29.7235  31.2725  31.5894  33.8432
    35.1792  35.4092  35.5442  37.1453  38.1425  40.4030

     occupation numbers 
     1.0000   1.0000   1.0000   1.0000   0.0000   0.0000   0.0000   0.0000
     0.0000   0.0000   0.0000   0.0000   0.0000   0.0000   0.0000   0.0000
     0.0000   0.0000   0.0000   0.0000   0.0000   0.0000   0.0000   0.0000
     0.0000   0.0000   0.0000   0.0000   0.0000   0.0000

          k = 0.0000 1.0000 0.0000 (   556 PWs)   bands (ev):

    -1.6407  -1.6407   3.3267   3.3267   6.7661   6.7661  16.2815  16.2815
    17.0648  17.0648  18.7059  18.7059  19.0952  19.0952  24.9032  24.9032
    25.8333  25.8333  26.4096  26.4096  27.5237  27.5237  31.4308  31.4308
    35.4309  35.4309  40.2403  40.2403  40.4061  40.4061

     occupation numbers 
     1.0000   1.0000   1.0000   1.0000   0.0000   0.0000   0.0000   0.0000
     0.0000   0.0000   0.0000   0.0000   0.0000   0.0000   0.0000   0.0000
     0.0000   0.0000   0.0000   0.0000   0.0000   0.0000   0.0000   0.0000
     0.0000   0.0000   0.0000   0.0000   0.0000   0.0000

          k =-0.2500 1.2500-0.2500 (   558 PWs)   bands (ev):

    -3.0824  -0.2071   2.6083   3.9820   7.6015  10.5488  11.9096  12.0735
    16.3164  16.6671  18.3113  18.7831  19.0986  22.8714  23.8639  24.6316
    25.4945  25.6287  25.9850  29.0107  29.7235  31.2725  31.5894  33.8432
    35.1792  35.4092  35.5442  37.1453  38.1425  40.4030

     occupation numbers 
     1.0000   1.0000   1.0000   1.0000   0.0000   0.0000   0.0000   0.0000
     0.0000   0.0000   0.0000   0.0000   0.0000   0.0000   0.0000   0.0000
     0.0000   0.0000   0.0000   0.0000   0.0000   0.0000   0.0000   0.0000
     0.0000   0.0000   0.0000   0.0000   0.0000   0.0000

          k = 0.7500 0.7500 0.7500 (   564 PWs)   bands (ev):

    -5.0400   2.2481   5.4436   5.4436   8.1835   9.6743   9.6743  13.0615
    13.3128  13.3128  15.0084  17.8818  20.7684  20.7684  23.9735  23.9879
    23.9879  26.0854  30.0344  30.0344  32.4108  32.4108  33.7126  35.2149
    36.5068  38.0883  38.0883  39.4599  39.4600  40.4979

     occupation numbers 
     1.0000   1.0000   1.0000   1.0000   0.0000   0.0000   0.0000   0.0000
     0.0000   0.0000   0.0000   0.0000   0.0000   0.0000   0.0000   0.0000
     0.0000   0.0000   0.0000   0.0000   0.0000   0.0000   0.0000   0.0000
     0.0000   0.0000   0.0000   0.0000   0.0000   0.0000

          k = 0.5000 1.0000 0.5000 (   554 PWs)   bands (ev):

    -3.7711   0.7108   2.3756   4.8732   8.5684  10.9721  11.2408  12.2953
    12.5386  15.7688  18.6893  19.3091  19.5249  22.7550  23.1627  23.4398
    24.7862  27.1911  27.8819  29.9454  30.8757  31.3554  32.7290  33.2608
    33.6072  35.4565  36.4130  37.3302  39.9719  40.3473

     occupation numbers 
     1.0000   1.0000   1.0000   1.0000   0.0000   0.0000   0.0000   0.0000
     0.0000   0.0000   0.0000   0.0000   0.0000   0.0000   0.0000   0.0000
     0.0000   0.0000   0.0000   0.0000   0.0000   0.0000   0.0000   0.0000
     0.0000   0.0000   0.0000   0.0000   0.0000   0.0000

          k = 0.2500 1.2500 0.2500 (   558 PWs)   bands (ev):

    -3.0824  -0.2071   2.6083   3.9820   7.6015  10.5488  11.9096  12.0735
    16.3164  16.6671  18.3113  18.7831  19.0986  22.8714  23.8639  24.6316
    25.4945  25.6287  25.9850  29.0107  29.7235  31.2725  31.5894  33.8432
    35.1792  35.4092  35.5442  37.1453  38.1425  40.4030

     occupation numbers 
     1.0000   1.0000   1.0000   1.0000   0.0000   0.0000   0.0000   0.0000
     0.0000   0.0000   0.0000   0.0000   0.0000   0.0000   0.0000   0.0000
     0.0000   0.0000   0.0000   0.0000   0.0000   0.0000   0.0000   0.0000
     0.0000   0.0000   0.0000   0.0000   0.0000   0.0000

          k = 0.0000 1.5000 0.0000 (   560 PWs)   bands (ev):

    -4.7537   2.7013   4.2954   4.2954   7.2305   9.2161  11.9343  11.9343
    14.1984  15.0877  17.4564  19.1265  19.1265  19.7900  23.4833  23.4833
    24.5336  26.2800  26.9702  30.9543  32.1448  33.1854  33.1854  35.5912
    35.5912  35.6803  36.3172  40.8270  41.2537  41.6081

     occupation numbers 
     1.0000   1.0000   1.0000   1.0000   0.0000   0.0000   0.0000   0.0000
     0.0000   0.0000   0.0000   0.0000   0.0000   0.0000   0.0000   0.0000
     0.0000   0.0000   0.0000   0.0000   0.0000   0.0000   0.0000   0.0000
     0.0000   0.0000   0.0000   0.0000   0.0000   0.0000

          k =-0.2500-0.2500 0.2500 (   564 PWs)   bands (ev):

    -5.0400   2.2481   5.4436   5.4436   8.1835   9.6743   9.6743  13.0615
    13.3128  13.3128  15.0084  17.8818  20.7684  20.7684  23.9735  23.9879
    23.9879  26.0854  30.0344  30.0344  32.4108  32.4108  33.7126  35.2149
    36.5068  38.0883  38.0883  39.4599  39.4599  40.4979

     occupation numbers 
     1.0000   1.0000   1.0000   1.0000   0.0000   0.0000   0.0000   0.0000
     0.0000   0.0000   0.0000   0.0000   0.0000   0.0000   0.0000   0.0000
     0.0000   0.0000   0.0000   0.0000   0.0000   0.0000   0.0000   0.0000
     0.0000   0.0000   0.0000   0.0000   0.0000   0.0000

          k =-0.5000 0.0000 0.0000 (   560 PWs)   bands (ev):

    -4.7537   2.7013   4.2954   4.2954   7.2305   9.2161  11.9343  11.9343
    14.1984  15.0877  17.4564  19.1265  19.1265  19.7900  23.4833  23.4833
    24.5336  26.2800  26.9702  30.9543  32.1448  33.1854  33.1854  35.5912
    35.5912  35.6803  36.3172  40.8270  41.2538  41.6081

     occupation numbers 
     1.0000   1.0000   1.0000   1.0000   0.0000   0.0000   0.0000   0.0000
     0.0000   0.0000   0.0000   0.0000   0.0000   0.0000   0.0000   0.0000
     0.0000   0.0000   0.0000   0.0000   0.0000   0.0000   0.0000   0.0000
     0.0000   0.0000   0.0000   0.0000   0.0000   0.0000

          k =-0.7500 0.2500-0.2500 (   558 PWs)   bands (ev):

    -3.0824  -0.2071   2.6083   3.9820   7.6015  10.5488  11.9096  12.0735
    16.3164  16.6671  18.3113  18.7831  19.0986  22.8714  23.8639  24.6316
    25.4945  25.6287  25.9850  29.0107  29.7235  31.2725  31.5894  33.8432
    35.1792  35.4092  35.5442  37.1453  38.1425  40.4030

     occupation numbers 
     1.0000   1.0000   1.0000   1.0000   0.0000   0.0000   0.0000   0.0000
     0.0000   0.0000   0.0000   0.0000   0.0000   0.0000   0.0000   0.0000
     0.0000   0.0000   0.0000   0.0000   0.0000   0.0000   0.0000   0.0000
     0.0000   0.0000   0.0000   0.0000   0.0000   0.0000

          k =-1.0000 0.5000-0.5000 (   554 PWs)   bands (ev):

    -3.7711   0.7108   2.3756   4.8732   8.5684  10.9721  11.2408  12.2953
    12.5386  15.7688  18.6893  19.3091  19.5249  22.7550  23.1627  23.4398
    24.7862  27.1911  27.8819  29.9454  30.8757  31.3554  32.7290  33.2608
    33.6072  35.4565  36.4130  37.3302  39.9719  40.3473

     occupation numbers 
     1.0000   1.0000   1.0000   1.0000   0.0000   0.0000   0.0000   0.0000
     0.0000   0.0000   0.0000   0.0000   0.0000   0.0000   0.0000   0.0000
     0.0000   0.0000   0.0000   0.0000   0.0000   0.0000   0.0000   0.0000
     0.0000   0.0000   0.0000   0.0000   0.0000   0.0000

          k = 0.0000 0.0000 0.5000 (   560 PWs)   bands (ev):

    -4.7537   2.7013   4.2954   4.2954   7.2305   9.2161  11.9343  11.9343
    14.1984  15.0877  17.4564  19.1265  19.1265  19.7900  23.4833  23.4833
    24.5336  26.2800  26.9702  30.9543  32.1448  33.1854  33.1854  35.5912
    35.5912  35.6803  36.3172  40.8270  41.2537  41.6081

     occupation numbers 
     1.0000   1.0000   1.0000   1.0000   0.0000   0.0000   0.0000   0.0000
     0.0000   0.0000   0.0000   0.0000   0.0000   0.0000   0.0000   0.0000
     0.0000   0.0000   0.0000   0.0000   0.0000   0.0000   0.0000   0.0000
     0.0000   0.0000   0.0000   0.0000   0.0000   0.0000

          k =-0.2500 0.2500 0.2500 (   564 PWs)   bands (ev):

    -5.0400   2.2481   5.4436   5.4436   8.1835   9.6743   9.6743  13.0615
    13.3128  13.3128  15.0084  17.8818  20.7684  20.7684  23.9735  23.9879
    23.9879  26.0854  30.0344  30.0344  32.4108  32.4108  33.7126  35.2149
    36.5068  38.0883  38.0883  39.4599  39.4600  40.4979

     occupation numbers 
     1.0000   1.0000   1.0000   1.0000   0.0000   0.0000   0.0000   0.0000
     0.0000   0.0000   0.0000   0.0000   0.0000   0.0000   0.0000   0.0000
     0.0000   0.0000   0.0000   0.0000   0.0000   0.0000   0.0000   0.0000
     0.0000   0.0000   0.0000   0.0000   0.0000   0.0000

          k =-0.5000 0.5000 0.0000 (   554 PWs)   bands (ev):

    -3.7711   0.7108   2.3756   4.8732   8.5684  10.9721  11.2408  12.2953
    12.5386  15.7688  18.6893  19.3091  19.5249  22.7550  23.1627  23.4398
    24.7862  27.1911  27.8819  29.9454  30.8757  31.3554  32.7290  33.2608
    33.6072  35.4565  36.4130  37.3302  39.9719  40.3473

     occupation numbers 
     1.0000   1.0000   1.0000   1.0000   0.0000   0.0000   0.0000   0.0000
     0.0000   0.0000   0.0000   0.0000   0.0000   0.0000   0.0000   0.0000
     0.0000   0.0000   0.0000   0.0000   0.0000   0.0000   0.0000   0.0000
     0.0000   0.0000   0.0000   0.0000   0.0000   0.0000

          k =-0.7500 0.7500-0.2500 (   558 PWs)   bands (ev):

    -3.0824  -0.2071   2.6083   3.9820   7.6015  10.5488  11.9096  12.0735
    16.3164  16.6671  18.3113  18.7831  19.0986  22.8714  23.8639  24.6316
    25.4945  25.6287  25.9850  29.0107  29.7235  31.2725  31.5894  33.8432
    35.1792  35.4092  35.5442  37.1453  38.1425  40.4030

     occupation numbers 
     1.0000   1.0000   1.0000   1.0000   0.0000   0.0000   0.0000   0.0000
     0.0000   0.0000   0.0000   0.0000   0.0000   0.0000   0.0000   0.0000
     0.0000   0.0000   0.0000   0.0000   0.0000   0.0000   0.0000   0.0000
     0.0000   0.0000   0.0000   0.0000   0.0000   0.0000

          k = 0.2500 0.2500 0.7500 (   558 PWs)   bands (ev):

    -3.0824  -0.2071   2.6083   3.9820   7.6015  10.5488  11.9096  12.0735
    16.3164  16.6671  18.3113  18.7831  19.0986  22.8714  23.8639  24.6316
    25.4945  25.6287  25.9850  29.0107  29.7235  31.2725  31.5894  33.8432
    35.1792  35.4092  35.5442  37.1454  38.1425  40.4030

     occupation numbers 
     1.0000   1.0000   1.0000   1.0000   0.0000   0.0000   0.0000   0.0000
     0.0000   0.0000   0.0000   0.0000   0.0000   0.0000   0.0000   0.0000
     0.0000   0.0000   0.0000   0.0000   0.0000   0.0000   0.0000   0.0000
     0.0000   0.0000   0.0000   0.0000   0.0000   0.0000

          k = 0.0000 0.5000 0.5000 (   554 PWs)   bands (ev):

    -3.7711   0.7108   2.3756   4.8732   8.5684  10.9721  11.2408  12.2953
    12.5386  15.7688  18.6893  19.3091  19.5249  22.7550  23.1627  23.4398
    24.7862  27.1911  27.8819  29.9454  30.8757  31.3554  32.7290  33.2608
    33.6072  35.4565  36.4130  37.3302  39.9719  40.3473

     occupation numbers 
     1.0000   1.0000   1.0000   1.0000   0.0000   0.0000   0.0000   0.0000
     0.0000   0.0000   0.0000   0.0000   0.0000   0.0000   0.0000   0.0000
     0.0000   0.0000   0.0000   0.0000   0.0000   0.0000   0.0000   0.0000
     0.0000   0.0000   0.0000   0.0000   0.0000   0.0000

          k =-0.2500 0.7500 0.2500 (   558 PWs)   bands (ev):

    -3.0824  -0.2071   2.6083   3.9820   7.6015  10.5488  11.9096  12.0735
    16.3164  16.6671  18.3113  18.7831  19.0986  22.8714  23.8639  24.6316
    25.4945  25.6287  25.9850  29.0107  29.7235  31.2725  31.5894  33.8432
    35.1792  35.4092  35.5442  37.1454  38.1425  40.4030

     occupation numbers 
     1.0000   1.0000   1.0000   1.0000   0.0000   0.0000   0.0000   0.0000
     0.0000   0.0000   0.0000   0.0000   0.0000   0.0000   0.0000   0.0000
     0.0000   0.0000   0.0000   0.0000   0.0000   0.0000   0.0000   0.0000
     0.0000   0.0000   0.0000   0.0000   0.0000   0.0000

          k =-0.5000 1.0000 0.0000 (   560 PWs)   bands (ev):

    -1.4644  -1.4644   2.2685   2.2685  10.3547  10.3547  11.1681  11.1681
    16.7054  16.7054  19.1602  19.1603  22.5288  22.5288  24.6755  24.6755
    24.9259  24.9259  25.8390  25.8390  29.7197  29.7197  33.6991  33.6991
    33.8545  33.8545  35.3911  35.3911  38.6120  38.6120

     occupation numbers 
     1.0000   1.0000   1.0000   1.0000   0.0000   0.0000   0.0000   0.0000
     0.0000   0.0000   0.0000   0.0000   0.0000   0.0000   0.0000   0.0000
     0.0000   0.0000   0.0000   0.0000   0.0000   0.0000   0.0000   0.0000
     0.0000   0.0000   0.0000   0.0000   0.0000   0.0000

          k = 0.5000 0.5000 1.0000 (   554 PWs)   bands (ev):

    -3.7711   0.7108   2.3756   4.8732   8.5684  10.9721  11.2408  12.2953
    12.5386  15.7688  18.6893  19.3091  19.5249  22.7550  23.1627  23.4398
    24.7862  27.1911  27.8819  29.9454  30.8757  31.3554  32.7290  33.2608
    33.6072  35.4565  36.4130  37.3302  39.9719  40.3473

     occupation numbers 
     1.0000   1.0000   1.0000   1.0000   0.0000   0.0000   0.0000   0.0000
     0.0000   0.0000   0.0000   0.0000   0.0000   0.0000   0.0000   0.0000
     0.0000   0.0000   0.0000   0.0000   0.0000   0.0000   0.0000   0.0000
     0.0000   0.0000   0.0000   0.0000   0.0000   0.0000

          k = 0.2500 0.7500 0.7500 (   558 PWs)   bands (ev):

    -3.0824  -0.2071   2.6083   3.9820   7.6015  10.5488  11.9096  12.0735
    16.3164  16.6671  18.3113  18.7831  19.0986  22.8714  23.8639  24.6316
    25.4945  25.6287  25.9850  29.0107  29.7235  31.2725  31.5894  33.8432
    35.1792  35.4092  35.5442  37.1454  38.1425  40.4031

     occupation numbers 
     1.0000   1.0000   1.0000   1.0000   0.0000   0.0000   0.0000   0.0000
     0.0000   0.0000   0.0000   0.0000   0.0000   0.0000   0.0000   0.0000
     0.0000   0.0000   0.0000   0.0000   0.0000   0.0000   0.0000   0.0000
     0.0000   0.0000   0.0000   0.0000   0.0000   0.0000

          k = 0.0000 1.0000 0.5000 (   560 PWs)   bands (ev):

    -1.4644  -1.4644   2.2685   2.2685  10.3547  10.3547  11.1681  11.1681
    16.7054  16.7054  19.1602  19.1603  22.5288  22.5288  24.6755  24.6755
    24.9259  24.9259  25.8390  25.8390  29.7197  29.7197  33.6991  33.6991
    33.8545  33.8545  35.3911  35.3911  38.6120  38.6120

     occupation numbers 
     1.0000   1.0000   1.0000   1.0000   0.0000   0.0000   0.0000   0.0000
     0.0000   0.0000   0.0000   0.0000   0.0000   0.0000   0.0000   0.0000
     0.0000   0.0000   0.0000   0.0000   0.0000   0.0000   0.0000   0.0000
     0.0000   0.0000   0.0000   0.0000   0.0000   0.0000

          k =-0.2500 1.2500 0.2500 (   558 PWs)   bands (ev):

    -3.0824  -0.2071   2.6083   3.9820   7.6015  10.5488  11.9096  12.0735
    16.3164  16.6671  18.3113  18.7831  19.0986  22.8714  23.8639  24.6316
    25.4945  25.6287  25.9850  29.0107  29.7235  31.2725  31.5894  33.8432
    35.1792  35.4092  35.5442  37.1454  38.1425  40.4031

     occupation numbers 
     1.0000   1.0000   1.0000   1.0000   0.0000   0.0000   0.0000   0.0000
     0.0000   0.0000   0.0000   0.0000   0.0000   0.0000   0.0000   0.0000
     0.0000   0.0000   0.0000   0.0000   0.0000   0.0000   0.0000   0.0000
     0.0000   0.0000   0.0000   0.0000   0.0000   0.0000

          k =-0.5000-0.5000 0.5000 (   568 PWs)   bands (ev):

    -3.4661  -0.8472   5.0085   5.0085   7.6843   9.4734   9.4734  13.7444
    16.6667  16.6667  17.3918  17.4979  17.4979  19.0635  25.3201  26.0298
    27.7605  27.7605  27.8870  27.8870  31.7045  32.6579  32.6579  33.1943
    33.1943  34.4712  37.6167  38.2809  38.2811  39.0349

     occupation numbers 
     1.0000   1.0000   1.0000   1.0000   0.0000   0.0000   0.0000   0.0000
     0.0000   0.0000   0.0000   0.0000   0.0000   0.0000   0.0000   0.0000
     0.0000   0.0000   0.0000   0.0000   0.0000   0.0000   0.0000   0.0000
     0.0000   0.0000   0.0000   0.0000   0.0000   0.0000

          k =-0.7500-0.2500 0.2500 (   558 PWs)   bands (ev):

    -3.0824  -0.2071   2.6083   3.9820   7.6015  10.5488  11.9096  12.0735
    16.3164  16.6671  18.3113  18.7831  19.0986  22.8714  23.8639  24.6316
    25.4945  25.6287  25.9850  29.0107  29.7235  31.2725  31.5894  33.8432
    35.1792  35.4092  35.5442  37.1454  38.1425  40.4030

     occupation numbers 
     1.0000   1.0000   1.0000   1.0000   0.0000   0.0000   0.0000   0.0000
     0.0000   0.0000   0.0000   0.0000   0.0000   0.0000   0.0000   0.0000
     0.0000   0.0000   0.0000   0.0000   0.0000   0.0000   0.0000   0.0000
     0.0000   0.0000   0.0000   0.0000   0.0000   0.0000

          k =-1.0000 0.0000 0.0000 (   556 PWs)   bands (ev):

    -1.6407  -1.6407   3.3267   3.3267   6.7661   6.7661  16.2815  16.2815
    17.0648  17.0648  18.7059  18.7059  19.0952  19.0952  24.9032  24.9032
    25.8333  25.8333  26.4096  26.4096  27.5237  27.5237  31.4308  31.4308
    35.4309  35.4309  40.2403  40.2403  40.4061  40.4061

     occupation numbers 
     1.0000   1.0000   1.0000   1.0000   0.0000   0.0000   0.0000   0.0000
     0.0000   0.0000   0.0000   0.0000   0.0000   0.0000   0.0000   0.0000
     0.0000   0.0000   0.0000   0.0000   0.0000   0.0000   0.0000   0.0000
     0.0000   0.0000   0.0000   0.0000   0.0000   0.0000

          k =-1.2500 0.2500-0.2500 (   558 PWs)   bands (ev):

    -3.0824  -0.2071   2.6083   3.9820   7.6015  10.5488  11.9096  12.0735
    16.3164  16.6671  18.3113  18.7831  19.0986  22.8714  23.8639  24.6316
    25.4945  25.6287  25.9850  29.0107  29.7235  31.2725  31.5894  33.8432
    35.1792  35.4092  35.5442  37.1454  38.1425  40.4030

     occupation numbers 
     1.0000   1.0000   1.0000   1.0000   0.0000   0.0000   0.0000   0.0000
     0.0000   0.0000   0.0000   0.0000   0.0000   0.0000   0.0000   0.0000
     0.0000   0.0000   0.0000   0.0000   0.0000   0.0000   0.0000   0.0000
     0.0000   0.0000   0.0000   0.0000   0.0000   0.0000

          k =-0.2500-0.2500 0.7500 (   558 PWs)   bands (ev):

    -3.0824  -0.2071   2.6083   3.9820   7.6015  10.5488  11.9096  12.0735
    16.3164  16.6671  18.3113  18.7831  19.0986  22.8714  23.8639  24.6316
    25.4945  25.6287  25.9850  29.0107  29.7235  31.2725  31.5894  33.8432
    35.1792  35.4092  35.5442  37.1454  38.1425  40.4031

     occupation numbers 
     1.0000   1.0000   1.0000   1.0000   0.0000   0.0000   0.0000   0.0000
     0.0000   0.0000   0.0000   0.0000   0.0000   0.0000   0.0000   0.0000
     0.0000   0.0000   0.0000   0.0000   0.0000   0.0000   0.0000   0.0000
     0.0000   0.0000   0.0000   0.0000   0.0000   0.0000

          k =-0.5000 0.0000 0.5000 (   554 PWs)   bands (ev):

    -3.7711   0.7108   2.3756   4.8732   8.5684  10.9721  11.2408  12.2953
    12.5386  15.7688  18.6893  19.3091  19.5249  22.7550  23.1627  23.4398
    24.7862  27.1911  27.8819  29.9454  30.8757  31.3554  32.7290  33.2608
    33.6072  35.4565  36.4130  37.3302  39.9719  40.3473

     occupation numbers 
     1.0000   1.0000   1.0000   1.0000   0.0000   0.0000   0.0000   0.0000
     0.0000   0.0000   0.0000   0.0000   0.0000   0.0000   0.0000   0.0000
     0.0000   0.0000   0.0000   0.0000   0.0000   0.0000   0.0000   0.0000
     0.0000   0.0000   0.0000   0.0000   0.0000   0.0000

          k =-0.7500 0.2500 0.2500 (   558 PWs)   bands (ev):

    -3.0824  -0.2071   2.6083   3.9820   7.6015  10.5488  11.9096  12.0735
    16.3164  16.6671  18.3113  18.7831  19.0986  22.8714  23.8639  24.6316
    25.4945  25.6287  25.9850  29.0107  29.7235  31.2725  31.5894  33.8432
    35.1792  35.4092  35.5442  37.1454  38.1425  40.4030

     occupation numbers 
     1.0000   1.0000   1.0000   1.0000   0.0000   0.0000   0.0000   0.0000
     0.0000   0.0000   0.0000   0.0000   0.0000   0.0000   0.0000   0.0000
     0.0000   0.0000   0.0000   0.0000   0.0000   0.0000   0.0000   0.0000
     0.0000   0.0000   0.0000   0.0000   0.0000   0.0000

          k =-1.0000 0.5000 0.0000 (   560 PWs)   bands (ev):

    -1.4644  -1.4644   2.2685   2.2685  10.3547  10.3547  11.1681  11.1681
    16.7054  16.7054  19.1602  19.1603  22.5288  22.5288  24.6755  24.6755
    24.9259  24.9259  25.8390  25.8390  29.7197  29.7197  33.6991  33.6991
    33.8545  33.8545  35.3911  35.3911  38.6120  38.6120

     occupation numbers 
     1.0000   1.0000   1.0000   1.0000   0.0000   0.0000   0.0000   0.0000
     0.0000   0.0000   0.0000   0.0000   0.0000   0.0000   0.0000   0.0000
     0.0000   0.0000   0.0000   0.0000   0.0000   0.0000   0.0000   0.0000
     0.0000   0.0000   0.0000   0.0000   0.0000   0.0000

          k = 0.0000 0.0000 1.0000 (   556 PWs)   bands (ev):

    -1.6407  -1.6407   3.3267   3.3267   6.7661   6.7661  16.2815  16.2815
    17.0648  17.0648  18.7059  18.7059  19.0952  19.0952  24.9032  24.9032
    25.8333  25.8333  26.4096  26.4096  27.5237  27.5237  31.4308  31.4308
    35.4309  35.4309  40.2403  40.2403  40.4061  40.4061

     occupation numbers 
     1.0000   1.0000   1.0000   1.0000   0.0000   0.0000   0.0000   0.0000
     0.0000   0.0000   0.0000   0.0000   0.0000   0.0000   0.0000   0.0000
     0.0000   0.0000   0.0000   0.0000   0.0000   0.0000   0.0000   0.0000
     0.0000   0.0000   0.0000   0.0000   0.0000   0.0000

          k =-0.2500 0.2500 0.7500 (   558 PWs)   bands (ev):

    -3.0824  -0.2071   2.6083   3.9820   7.6015  10.5488  11.9096  12.0735
    16.3164  16.6671  18.3113  18.7831  19.0986  22.8714  23.8639  24.6316
    25.4945  25.6287  25.9850  29.0107  29.7235  31.2725  31.5894  33.8432
    35.1792  35.4092  35.5442  37.1454  38.1425  40.4030

     occupation numbers 
     1.0000   1.0000   1.0000   1.0000   0.0000   0.0000   0.0000   0.0000
     0.0000   0.0000   0.0000   0.0000   0.0000   0.0000   0.0000   0.0000
     0.0000   0.0000   0.0000   0.0000   0.0000   0.0000   0.0000   0.0000
     0.0000   0.0000   0.0000   0.0000   0.0000   0.0000

          k =-0.5000 0.5000 0.5000 (   568 PWs)   bands (ev):

    -3.4661  -0.8472   5.0085   5.0085   7.6843   9.4734   9.4734  13.7444
    16.6667  16.6667  17.3918  17.4979  17.4979  19.0635  25.3201  26.0298
    27.7605  27.7605  27.8870  27.8870  31.7045  32.6579  32.6579  33.1943
    33.1943  34.4712  37.6167  38.2809  38.2809  39.0349

     occupation numbers 
     1.0000   1.0000   1.0000   1.0000   0.0000   0.0000   0.0000   0.0000
     0.0000   0.0000   0.0000   0.0000   0.0000   0.0000   0.0000   0.0000
     0.0000   0.0000   0.0000   0.0000   0.0000   0.0000   0.0000   0.0000
     0.0000   0.0000   0.0000   0.0000   0.0000   0.0000

          k =-0.7500 0.7500 0.2500 (   558 PWs)   bands (ev):

    -3.0824  -0.2071   2.6083   3.9820   7.6015  10.5488  11.9096  12.0735
    16.3164  16.6671  18.3113  18.7831  19.0986  22.8714  23.8639  24.6316
    25.4945  25.6287  25.9850  29.0107  29.7235  31.2725  31.5894  33.8432
    35.1792  35.4092  35.5442  37.1454  38.1425  40.4031

     occupation numbers 
     1.0000   1.0000   1.0000   1.0000   0.0000   0.0000   0.0000   0.0000
     0.0000   0.0000   0.0000   0.0000   0.0000   0.0000   0.0000   0.0000
     0.0000   0.0000   0.0000   0.0000   0.0000   0.0000   0.0000   0.0000
     0.0000   0.0000   0.0000   0.0000   0.0000   0.0000

          k = 0.2500 0.2500 1.2500 (   558 PWs)   bands (ev):

    -3.0824  -0.2071   2.6083   3.9820   7.6015  10.5488  11.9096  12.0735
    16.3164  16.6671  18.3113  18.7831  19.0986  22.8714  23.8639  24.6316
    25.4945  25.6287  25.9850  29.0107  29.7235  31.2725  31.5894  33.8432
    35.1792  35.4092  35.5442  37.1453  38.1425  40.4030

     occupation numbers 
     1.0000   1.0000   1.0000   1.0000   0.0000   0.0000   0.0000   0.0000
     0.0000   0.0000   0.0000   0.0000   0.0000   0.0000   0.0000   0.0000
     0.0000   0.0000   0.0000   0.0000   0.0000   0.0000   0.0000   0.0000
     0.0000   0.0000   0.0000   0.0000   0.0000   0.0000

          k = 0.0000 0.5000 1.0000 (   560 PWs)   bands (ev):

    -1.4644  -1.4644   2.2685   2.2685  10.3547  10.3547  11.1681  11.1681
    16.7054  16.7054  19.1602  19.1603  22.5288  22.5288  24.6755  24.6755
    24.9259  24.9259  25.8390  25.8390  29.7197  29.7197  33.6991  33.6991
    33.8545  33.8545  35.3911  35.3911  38.6120  38.6120

     occupation numbers 
     1.0000   1.0000   1.0000   1.0000   0.0000   0.0000   0.0000   0.0000
     0.0000   0.0000   0.0000   0.0000   0.0000   0.0000   0.0000   0.0000
     0.0000   0.0000   0.0000   0.0000   0.0000   0.0000   0.0000   0.0000
     0.0000   0.0000   0.0000   0.0000   0.0000   0.0000

          k =-0.2500 0.7500 0.7500 (   558 PWs)   bands (ev):

    -3.0824  -0.2071   2.6083   3.9820   7.6015  10.5488  11.9096  12.0735
    16.3164  16.6671  18.3113  18.7831  19.0986  22.8714  23.8639  24.6316
    25.4945  25.6287  25.9850  29.0107  29.7235  31.2725  31.5894  33.8432
    35.1792  35.4092  35.5442  37.1453  38.1425  40.4030

     occupation numbers 
     1.0000   1.0000   1.0000   1.0000   0.0000   0.0000   0.0000   0.0000
     0.0000   0.0000   0.0000   0.0000   0.0000   0.0000   0.0000   0.0000
     0.0000   0.0000   0.0000   0.0000   0.0000   0.0000   0.0000   0.0000
     0.0000   0.0000   0.0000   0.0000   0.0000   0.0000

          k =-0.5000 1.0000 0.5000 (   554 PWs)   bands (ev):

    -3.7711   0.7108   2.3756   4.8732   8.5684  10.9721  11.2408  12.2953
    12.5386  15.7688  18.6893  19.3091  19.5249  22.7550  23.1627  23.4398
    24.7862  27.1911  27.8819  29.9454  30.8757  31.3554  32.7290  33.2608
    33.6072  35.4565  36.4130  37.3302  39.9719  40.3473

     occupation numbers 
     1.0000   1.0000   1.0000   1.0000   0.0000   0.0000   0.0000   0.0000
     0.0000   0.0000   0.0000   0.0000   0.0000   0.0000   0.0000   0.0000
     0.0000   0.0000   0.0000   0.0000   0.0000   0.0000   0.0000   0.0000
     0.0000   0.0000   0.0000   0.0000   0.0000   0.0000

          k =-0.7500-0.7500 0.7500 (   564 PWs)   bands (ev):

    -5.0400   2.2481   5.4436   5.4436   8.1835   9.6743   9.6743  13.0615
    13.3128  13.3128  15.0084  17.8818  20.7684  20.7684  23.9735  23.9879
    23.9879  26.0854  30.0344  30.0344  32.4108  32.4108  33.7126  35.2149
    36.5068  38.0883  38.0883  39.4599  39.4599  40.4979

     occupation numbers 
     1.0000   1.0000   1.0000   1.0000   0.0000   0.0000   0.0000   0.0000
     0.0000   0.0000   0.0000   0.0000   0.0000   0.0000   0.0000   0.0000
     0.0000   0.0000   0.0000   0.0000   0.0000   0.0000   0.0000   0.0000
     0.0000   0.0000   0.0000   0.0000   0.0000   0.0000

          k =-1.0000-0.5000 0.5000 (   554 PWs)   bands (ev):

    -3.7711   0.7108   2.3756   4.8732   8.5684  10.9721  11.2408  12.2953
    12.5386  15.7688  18.6893  19.3091  19.5249  22.7550  23.1627  23.4398
    24.7862  27.1911  27.8819  29.9454  30.8757  31.3554  32.7290  33.2608
    33.6072  35.4565  36.4130  37.3302  39.9719  40.3473

     occupation numbers 
     1.0000   1.0000   1.0000   1.0000   0.0000   0.0000   0.0000   0.0000
     0.0000   0.0000   0.0000   0.0000   0.0000   0.0000   0.0000   0.0000
     0.0000   0.0000   0.0000   0.0000   0.0000   0.0000   0.0000   0.0000
     0.0000   0.0000   0.0000   0.0000   0.0000   0.0000

          k =-1.2500-0.2500 0.2500 (   558 PWs)   bands (ev):

    -3.0824  -0.2071   2.6083   3.9820   7.6015  10.5488  11.9096  12.0735
    16.3164  16.6671  18.3113  18.7831  19.0986  22.8714  23.8639  24.6316
    25.4945  25.6287  25.9850  29.0107  29.7235  31.2725  31.5894  33.8432
    35.1792  35.4092  35.5442  37.1454  38.1425  40.4031

     occupation numbers 
     1.0000   1.0000   1.0000   1.0000   0.0000   0.0000   0.0000   0.0000
     0.0000   0.0000   0.0000   0.0000   0.0000   0.0000   0.0000   0.0000
     0.0000   0.0000   0.0000   0.0000   0.0000   0.0000   0.0000   0.0000
     0.0000   0.0000   0.0000   0.0000   0.0000   0.0000

          k =-1.5000 0.0000 0.0000 (   560 PWs)   bands (ev):

    -4.7537   2.7013   4.2954   4.2954   7.2305   9.2161  11.9343  11.9343
    14.1984  15.0877  17.4564  19.1265  19.1265  19.7900  23.4833  23.4833
    24.5336  26.2800  26.9702  30.9543  32.1448  33.1854  33.1854  35.5912
    35.5912  35.6803  36.3172  40.8270  41.2537  41.6081

     occupation numbers 
     1.0000   1.0000   1.0000   1.0000   0.0000   0.0000   0.0000   0.0000
     0.0000   0.0000   0.0000   0.0000   0.0000   0.0000   0.0000   0.0000
     0.0000   0.0000   0.0000   0.0000   0.0000   0.0000   0.0000   0.0000
     0.0000   0.0000   0.0000   0.0000   0.0000   0.0000

          k =-0.5000-0.5000 1.0000 (   554 PWs)   bands (ev):

    -3.7711   0.7108   2.3756   4.8732   8.5684  10.9721  11.2408  12.2953
    12.5386  15.7688  18.6893  19.3091  19.5249  22.7550  23.1627  23.4398
    24.7862  27.1911  27.8819  29.9454  30.8757  31.3554  32.7290  33.2608
    33.6072  35.4565  36.4130  37.3302  39.9719  40.3473

     occupation numbers 
     1.0000   1.0000   1.0000   1.0000   0.0000   0.0000   0.0000   0.0000
     0.0000   0.0000   0.0000   0.0000   0.0000   0.0000   0.0000   0.0000
     0.0000   0.0000   0.0000   0.0000   0.0000   0.0000   0.0000   0.0000
     0.0000   0.0000   0.0000   0.0000   0.0000   0.0000

          k =-0.7500-0.2500 0.7500 (   558 PWs)   bands (ev):

    -3.0824  -0.2071   2.6083   3.9820   7.6015  10.5488  11.9096  12.0735
    16.3164  16.6671  18.3113  18.7831  19.0986  22.8714  23.8639  24.6316
    25.4945  25.6287  25.9850  29.0107  29.7235  31.2725  31.5894  33.8432
    35.1792  35.4092  35.5442  37.1454  38.1425  40.4030

     occupation numbers 
     1.0000   1.0000   1.0000   1.0000   0.0000   0.0000   0.0000   0.0000
     0.0000   0.0000   0.0000   0.0000   0.0000   0.0000   0.0000   0.0000
     0.0000   0.0000   0.0000   0.0000   0.0000   0.0000   0.0000   0.0000
     0.0000   0.0000   0.0000   0.0000   0.0000   0.0000

          k =-1.0000 0.0000 0.5000 (   560 PWs)   bands (ev):

    -1.4644  -1.4644   2.2685   2.2685  10.3547  10.3547  11.1681  11.1681
    16.7054  16.7054  19.1602  19.1603  22.5288  22.5288  24.6755  24.6755
    24.9259  24.9259  25.8390  25.8390  29.7197  29.7197  33.6991  33.6991
    33.8545  33.8545  35.3911  35.3911  38.6120  38.6120

     occupation numbers 
     1.0000   1.0000   1.0000   1.0000   0.0000   0.0000   0.0000   0.0000
     0.0000   0.0000   0.0000   0.0000   0.0000   0.0000   0.0000   0.0000
     0.0000   0.0000   0.0000   0.0000   0.0000   0.0000   0.0000   0.0000
     0.0000   0.0000   0.0000   0.0000   0.0000   0.0000

          k =-1.2500 0.2500 0.2500 (   558 PWs)   bands (ev):

    -3.0824  -0.2071   2.6083   3.9820   7.6015  10.5488  11.9096  12.0735
    16.3164  16.6671  18.3113  18.7831  19.0986  22.8714  23.8639  24.6316
    25.4945  25.6287  25.9850  29.0107  29.7235  31.2725  31.5894  33.8432
    35.1792  35.4092  35.5442  37.1453  38.1425  40.4031

     occupation numbers 
     1.0000   1.0000   1.0000   1.0000   0.0000   0.0000   0.0000   0.0000
     0.0000   0.0000   0.0000   0.0000   0.0000   0.0000   0.0000   0.0000
     0.0000   0.0000   0.0000   0.0000   0.0000   0.0000   0.0000   0.0000
     0.0000   0.0000   0.0000   0.0000   0.0000   0.0000

          k =-0.2500-0.2500 1.2500 (   558 PWs)   bands (ev):

    -3.0824  -0.2071   2.6083   3.9820   7.6015  10.5488  11.9096  12.0735
    16.3164  16.6671  18.3113  18.7831  19.0986  22.8714  23.8639  24.6316
    25.4945  25.6287  25.9850  29.0107  29.7235  31.2725  31.5894  33.8432
    35.1792  35.4092  35.5442  37.1453  38.1425  40.4030

     occupation numbers 
     1.0000   1.0000   1.0000   1.0000   0.0000   0.0000   0.0000   0.0000
     0.0000   0.0000   0.0000   0.0000   0.0000   0.0000   0.0000   0.0000
     0.0000   0.0000   0.0000   0.0000   0.0000   0.0000   0.0000   0.0000
     0.0000   0.0000   0.0000   0.0000   0.0000   0.0000

          k =-0.5000 0.0000 1.0000 (   560 PWs)   bands (ev):

    -1.4644  -1.4644   2.2685   2.2685  10.3547  10.3547  11.1681  11.1681
    16.7054  16.7054  19.1602  19.1603  22.5288  22.5288  24.6755  24.6755
    24.9259  24.9259  25.8390  25.8390  29.7197  29.7197  33.6991  33.6991
    33.8545  33.8545  35.3911  35.3911  38.6120  38.6120

     occupation numbers 
     1.0000   1.0000   1.0000   1.0000   0.0000   0.0000   0.0000   0.0000
     0.0000   0.0000   0.0000   0.0000   0.0000   0.0000   0.0000   0.0000
     0.0000   0.0000   0.0000   0.0000   0.0000   0.0000   0.0000   0.0000
     0.0000   0.0000   0.0000   0.0000   0.0000   0.0000

          k =-0.7500 0.2500 0.7500 (   558 PWs)   bands (ev):

    -3.0824  -0.2071   2.6083   3.9820   7.6015  10.5488  11.9096  12.0735
    16.3164  16.6671  18.3113  18.7831  19.0986  22.8714  23.8639  24.6316
    25.4945  25.6287  25.9850  29.0107  29.7235  31.2725  31.5894  33.8432
    35.1792  35.4092  35.5442  37.1454  38.1425  40.4030

     occupation numbers 
     1.0000   1.0000   1.0000   1.0000   0.0000   0.0000   0.0000   0.0000
     0.0000   0.0000   0.0000   0.0000   0.0000   0.0000   0.0000   0.0000
     0.0000   0.0000   0.0000   0.0000   0.0000   0.0000   0.0000   0.0000
     0.0000   0.0000   0.0000   0.0000   0.0000   0.0000

          k =-1.0000 0.5000 0.5000 (   554 PWs)   bands (ev):

    -3.7711   0.7108   2.3756   4.8732   8.5684  10.9721  11.2408  12.2953
    12.5386  15.7688  18.6893  19.3091  19.5249  22.7550  23.1627  23.4398
    24.7862  27.1911  27.8819  29.9454  30.8757  31.3554  32.7290  33.2608
    33.6072  35.4565  36.4130  37.3302  39.9719  40.3473

     occupation numbers 
     1.0000   1.0000   1.0000   1.0000   0.0000   0.0000   0.0000   0.0000
     0.0000   0.0000   0.0000   0.0000   0.0000   0.0000   0.0000   0.0000
     0.0000   0.0000   0.0000   0.0000   0.0000   0.0000   0.0000   0.0000
     0.0000   0.0000   0.0000   0.0000   0.0000   0.0000

          k = 0.0000 0.0000 1.5000 (   560 PWs)   bands (ev):

    -4.7537   2.7013   4.2954   4.2954   7.2305   9.2161  11.9343  11.9343
    14.1984  15.0877  17.4564  19.1265  19.1265  19.7900  23.4833  23.4833
    24.5336  26.2800  26.9702  30.9543  32.1448  33.1854  33.1854  35.5912
    35.5912  35.6803  36.3172  40.8270  41.2537  41.6082

     occupation numbers 
     1.0000   1.0000   1.0000   1.0000   0.0000   0.0000   0.0000   0.0000
     0.0000   0.0000   0.0000   0.0000   0.0000   0.0000   0.0000   0.0000
     0.0000   0.0000   0.0000   0.0000   0.0000   0.0000   0.0000   0.0000
     0.0000   0.0000   0.0000   0.0000   0.0000   0.0000

          k =-0.2500 0.2500 1.2500 (   558 PWs)   bands (ev):

    -3.0824  -0.2071   2.6083   3.9820   7.6015  10.5488  11.9096  12.0735
    16.3164  16.6671  18.3113  18.7831  19.0986  22.8714  23.8639  24.6316
    25.4945  25.6287  25.9850  29.0107  29.7235  31.2725  31.5894  33.8432
    35.1792  35.4092  35.5442  37.1454  38.1425  40.4030

     occupation numbers 
     1.0000   1.0000   1.0000   1.0000   0.0000   0.0000   0.0000   0.0000
     0.0000   0.0000   0.0000   0.0000   0.0000   0.0000   0.0000   0.0000
     0.0000   0.0000   0.0000   0.0000   0.0000   0.0000   0.0000   0.0000
     0.0000   0.0000   0.0000   0.0000   0.0000   0.0000

          k =-0.5000 0.5000 1.0000 (   554 PWs)   bands (ev):

    -3.7711   0.7108   2.3756   4.8732   8.5684  10.9721  11.2408  12.2953
    12.5386  15.7688  18.6893  19.3091  19.5249  22.7550  23.1627  23.4398
    24.7862  27.1911  27.8819  29.9454  30.8757  31.3554  32.7290  33.2608
    33.6072  35.4565  36.4130  37.3302  39.9719  40.3473

     occupation numbers 
     1.0000   1.0000   1.0000   1.0000   0.0000   0.0000   0.0000   0.0000
     0.0000   0.0000   0.0000   0.0000   0.0000   0.0000   0.0000   0.0000
     0.0000   0.0000   0.0000   0.0000   0.0000   0.0000   0.0000   0.0000
     0.0000   0.0000   0.0000   0.0000   0.0000   0.0000

          k =-0.7500 0.7500 0.7500 (   564 PWs)   bands (ev):

    -5.0400   2.2481   5.4436   5.4436   8.1835   9.6743   9.6743  13.0615
    13.3128  13.3128  15.0084  17.8818  20.7684  20.7684  23.9735  23.9879
    23.9879  26.0854  30.0344  30.0344  32.4108  32.4108  33.7126  35.2149
    36.5068  38.0883  38.0883  39.4599  39.4599  40.4979

     occupation numbers 
     1.0000   1.0000   1.0000   1.0000   0.0000   0.0000   0.0000   0.0000
     0.0000   0.0000   0.0000   0.0000   0.0000   0.0000   0.0000   0.0000
     0.0000   0.0000   0.0000   0.0000   0.0000   0.0000   0.0000   0.0000
     0.0000   0.0000   0.0000   0.0000   0.0000   0.0000

     highest occupied, lowest unoccupied level (ev):     6.2037    6.7661

!    total energy              =     -15.87381197 Ry
     estimated scf accuracy    <          8.4E-13 Ry

     The total energy is the sum of the following terms:
     one-electron contribution =       4.74625279 Ry
     hartree contribution      =       1.10387619 Ry
     xc contribution           =      -4.82418235 Ry
     ewald contribution        =     -16.89975860 Ry

     convergence has been achieved in   6 iterations

     Writing output data file /home/agrim/Documents/DFT-GW/GWA_kpts/epsilon/QE_data/control_scripts/results/si_4/tempdir/silicon.save/
 
     init_run     :      0.81s CPU      2.02s WALL (       1 calls)
     electrons    :     13.97s CPU     14.46s WALL (       1 calls)

     Called by init_run:
     wfcinit      :      0.77s CPU      1.40s WALL (       1 calls)
     wfcinit:wfcr :      0.69s CPU      1.33s WALL (      64 calls)
     potinit      :      0.00s CPU      0.04s WALL (       1 calls)
     hinit0       :      0.02s CPU      0.39s WALL (       1 calls)

     Called by electrons:
     c_bands      :     12.02s CPU     12.33s WALL (       7 calls)
     sum_band     :      1.94s CPU      1.98s WALL (       7 calls)
     v_of_rho     :      0.00s CPU      0.03s WALL (       7 calls)
     v_h          :      0.00s CPU      0.00s WALL (       7 calls)
     v_xc         :      0.00s CPU      0.00s WALL (       7 calls)
     mix_rho      :      0.00s CPU      0.09s WALL (       7 calls)

     Called by c_bands:
     init_us_2    :      0.07s CPU      0.08s WALL (     960 calls)
     cegterg      :     11.89s CPU     12.20s WALL (     448 calls)

     Called by sum_band:
     sum_band:wei :      0.00s CPU      0.00s WALL (       7 calls)
     sum_band:loo :      1.94s CPU      1.97s WALL (       7 calls)
     sum_band:buf :      0.03s CPU      0.03s WALL (     448 calls)
     sum_band:ini :      0.04s CPU      0.04s WALL (     448 calls)

     Called by *egterg:
     cdiaghg      :      1.41s CPU      2.00s WALL (    1595 calls)
     cegterg:over :      0.46s CPU      0.47s WALL (    1211 calls)
     cegterg:upda :      0.28s CPU      0.28s WALL (    1211 calls)
     cegterg:last :      0.40s CPU      0.40s WALL (     892 calls)
     h_psi        :      9.75s CPU      9.99s WALL (    1723 calls)
     g_psi        :      0.04s CPU      0.04s WALL (    1211 calls)

     Called by h_psi:
     h_psi:calbec :      0.15s CPU      0.23s WALL (    1723 calls)
     vloc_psi     :      9.42s CPU      9.58s WALL (    1723 calls)
     add_vuspsi   :      0.10s CPU      0.11s WALL (    1723 calls)

     General routines
     calbec       :      0.14s CPU      0.22s WALL (    1723 calls)
     fft          :      0.00s CPU      0.34s WALL (      21 calls)
     ffts         :      0.00s CPU      0.00s WALL (       7 calls)
     fftw         :      9.81s CPU      9.99s WALL (   85142 calls)
 
     Parallel routines
 
     PWSCF        :     14.88s CPU     19.61s WALL

 
   This run was terminated on:   6:21:36  29Apr2022            

=------------------------------------------------------------------------------=
   JOB DONE.
=------------------------------------------------------------------------------=
