
     Program PWSCF v.6.8 starts on 29Jun2022 at 11:38:32 

     This program is part of the open-source Quantum ESPRESSO suite
     for quantum simulation of materials; please cite
         "P. Giannozzi et al., J. Phys.:Condens. Matter 21 395502 (2009);
         "P. Giannozzi et al., J. Phys.:Condens. Matter 29 465901 (2017);
         "P. Giannozzi et al., J. Chem. Phys. 152 154105 (2020);
          URL http://www.quantum-espresso.org", 
     in publications or presentations arising from this work. More details at
     http://www.quantum-espresso.org/quote

     Parallel version (MPI), running on     1 processors

     MPI processes distributed on     1 nodes
     8364 MiB available memory on the printing compute node when the environment starts

     Waiting for input...
     Reading input from standard input

     Current dimensions of program PWSCF are:
     Max number of different atomic species (ntypx) = 10
     Max number of k-points (npk) =  40000
     Max angular momentum in pseudopotentials (lmaxx) =  4

     Subspace diagonalization in iterative solution of the eigenvalue problem:
     a serial algorithm will be used


     G-vector sticks info
     --------------------
     sticks:   dense  smooth     PW     G-vecs:    dense   smooth      PW
     Sum         229     229     83                 2243     2243     459

     Using Slab Decomposition



     bravais-lattice index     =            3
     lattice parameter (alat)  =       5.1070  a.u.
     unit-cell volume          =      66.5990 (a.u.)^3
     number of atoms/cell      =            1
     number of atomic types    =            1
     number of electrons       =        16.00
     number of Kohn-Sham states=           12
     kinetic-energy cutoff     =      40.0000  Ry
     charge density cutoff     =     160.0000  Ry
     scf convergence threshold =      1.0E-10
     mixing beta               =       0.7000
     number of iterations used =            8  plain     mixing
     Exchange-correlation= PBE
                           (   1   4   3   4   0   0   0)

     celldm(1)=   5.107000  celldm(2)=   0.000000  celldm(3)=   0.000000
     celldm(4)=   0.000000  celldm(5)=   0.000000  celldm(6)=   0.000000

     crystal axes: (cart. coord. in units of alat)
               a(1) = (   0.500000   0.500000   0.500000 )  
               a(2) = (  -0.500000   0.500000   0.500000 )  
               a(3) = (  -0.500000  -0.500000   0.500000 )  

     reciprocal axes: (cart. coord. in units 2 pi/alat)
               b(1) = (  1.000000  0.000000  1.000000 )  
               b(2) = ( -1.000000  1.000000  0.000000 )  
               b(3) = (  0.000000 -1.000000  1.000000 )  


     PseudoPot. # 1 for Fe read from file:
     ./Fe_ONCV_PBE-1.2.upf
     MD5 check sum: 0a0a3b4237ca738a29386c4fd1f8ac5e
     Pseudo is Norm-conserving, Zval = 16.0
     Generated using ONCVPSP code by D. R. Hamann
     Using radial grid of  602 points,  6 beta functions with: 
                l(1) =   0
                l(2) =   0
                l(3) =   1
                l(4) =   1
                l(5) =   2
                l(6) =   2

     atomic species   valence    mass     pseudopotential
        Fe            16.00    55.84700     Fe( 1.00)

     Starting magnetic structure 
     atomic species   magnetization
        Fe           0.100

     48 Sym. Ops., with inversion, found


                                    s                        frac. trans.

      isym =  1     identity                                     

 cryst.   s( 1) = (     1          0          0      )
                  (     0          1          0      )
                  (     0          0          1      )

 cart.    s( 1) = (  1.0000000  0.0000000  0.0000000 )
                  (  0.0000000  1.0000000  0.0000000 )
                  (  0.0000000  0.0000000  1.0000000 )


      isym =  2     180 deg rotation - cart. axis [0,0,1]        

 cryst.   s( 2) = (     0          0          1      )
                  (     1         -1          1      )
                  (     1          0          0      )

 cart.    s( 2) = ( -1.0000000  0.0000000  0.0000000 )
                  (  0.0000000 -1.0000000  0.0000000 )
                  (  0.0000000  0.0000000  1.0000000 )


      isym =  3     180 deg rotation - cart. axis [0,1,0]        

 cryst.   s( 3) = (    -1          1         -1      )
                  (     0          0         -1      )
                  (     0         -1          0      )

 cart.    s( 3) = ( -1.0000000  0.0000000  0.0000000 )
                  (  0.0000000  1.0000000  0.0000000 )
                  (  0.0000000  0.0000000 -1.0000000 )


      isym =  4     180 deg rotation - cart. axis [1,0,0]        

 cryst.   s( 4) = (     0         -1          0      )
                  (    -1          0          0      )
                  (    -1          1         -1      )

 cart.    s( 4) = (  1.0000000  0.0000000  0.0000000 )
                  (  0.0000000 -1.0000000  0.0000000 )
                  (  0.0000000  0.0000000 -1.0000000 )


      isym =  5     180 deg rotation - cart. axis [1,1,0]        

 cryst.   s( 5) = (     0          0         -1      )
                  (     0         -1          0      )
                  (    -1          0          0      )

 cart.    s( 5) = (  0.0000000  1.0000000  0.0000000 )
                  (  1.0000000  0.0000000  0.0000000 )
                  (  0.0000000  0.0000000 -1.0000000 )


      isym =  6     180 deg rotation - cart. axis [1,-1,0]       

 cryst.   s( 6) = (    -1          0          0      )
                  (    -1          1         -1      )
                  (     0          0         -1      )

 cart.    s( 6) = (  0.0000000 -1.0000000  0.0000000 )
                  ( -1.0000000  0.0000000  0.0000000 )
                  (  0.0000000  0.0000000 -1.0000000 )


      isym =  7      90 deg rotation - cart. axis [0,0,-1]       

 cryst.   s( 7) = (     1         -1          1      )
                  (     1          0          0      )
                  (     0          1          0      )

 cart.    s( 7) = (  0.0000000  1.0000000  0.0000000 )
                  ( -1.0000000  0.0000000  0.0000000 )
                  (  0.0000000  0.0000000  1.0000000 )


      isym =  8      90 deg rotation - cart. axis [0,0,1]        

 cryst.   s( 8) = (     0          1          0      )
                  (     0          0          1      )
                  (     1         -1          1      )

 cart.    s( 8) = (  0.0000000 -1.0000000  0.0000000 )
                  (  1.0000000  0.0000000  0.0000000 )
                  (  0.0000000  0.0000000  1.0000000 )


      isym =  9     180 deg rotation - cart. axis [1,0,1]        

 cryst.   s( 9) = (     1         -1          1      )
                  (     0         -1          0      )
                  (     0          0         -1      )

 cart.    s( 9) = (  0.0000000  0.0000000  1.0000000 )
                  (  0.0000000 -1.0000000  0.0000000 )
                  (  1.0000000  0.0000000  0.0000000 )


      isym = 10     180 deg rotation - cart. axis [-1,0,1]       

 cryst.   s(10) = (    -1          0          0      )
                  (     0          0          1      )
                  (     0          1          0      )

 cart.    s(10) = (  0.0000000  0.0000000 -1.0000000 )
                  (  0.0000000 -1.0000000  0.0000000 )
                  ( -1.0000000  0.0000000  0.0000000 )


      isym = 11      90 deg rotation - cart. axis [0,1,0]        

 cryst.   s(11) = (     0          0         -1      )
                  (     1          0          0      )
                  (     1         -1          1      )

 cart.    s(11) = (  0.0000000  0.0000000  1.0000000 )
                  (  0.0000000  1.0000000  0.0000000 )
                  ( -1.0000000  0.0000000  0.0000000 )


      isym = 12      90 deg rotation - cart. axis [0,-1,0]       

 cryst.   s(12) = (     0          1          0      )
                  (    -1          1         -1      )
                  (    -1          0          0      )

 cart.    s(12) = (  0.0000000  0.0000000 -1.0000000 )
                  (  0.0000000  1.0000000  0.0000000 )
                  (  1.0000000  0.0000000  0.0000000 )


      isym = 13     180 deg rotation - cart. axis [0,1,1]        

 cryst.   s(13) = (     0          1          0      )
                  (     1          0          0      )
                  (     0          0         -1      )

 cart.    s(13) = ( -1.0000000  0.0000000  0.0000000 )
                  (  0.0000000  0.0000000  1.0000000 )
                  (  0.0000000  1.0000000  0.0000000 )


      isym = 14     180 deg rotation - cart. axis [0,1,-1]       

 cryst.   s(14) = (    -1          0          0      )
                  (     0         -1          0      )
                  (     1         -1          1      )

 cart.    s(14) = ( -1.0000000  0.0000000  0.0000000 )
                  (  0.0000000  0.0000000 -1.0000000 )
                  (  0.0000000 -1.0000000  0.0000000 )


      isym = 15      90 deg rotation - cart. axis [-1,0,0]       

 cryst.   s(15) = (     0          0         -1      )
                  (    -1          1         -1      )
                  (     0          1          0      )

 cart.    s(15) = (  1.0000000  0.0000000  0.0000000 )
                  (  0.0000000  0.0000000  1.0000000 )
                  (  0.0000000 -1.0000000  0.0000000 )


      isym = 16      90 deg rotation - cart. axis [1,0,0]        

 cryst.   s(16) = (     1         -1          1      )
                  (     0          0          1      )
                  (    -1          0          0      )

 cart.    s(16) = (  1.0000000  0.0000000  0.0000000 )
                  (  0.0000000  0.0000000 -1.0000000 )
                  (  0.0000000  1.0000000  0.0000000 )


      isym = 17     120 deg rotation - cart. axis [-1,-1,-1]     

 cryst.   s(17) = (     1          0          0      )
                  (     0          0         -1      )
                  (    -1          1         -1      )

 cart.    s(17) = (  0.0000000  1.0000000  0.0000000 )
                  (  0.0000000  0.0000000  1.0000000 )
                  (  1.0000000  0.0000000  0.0000000 )


      isym = 18     120 deg rotation - cart. axis [-1,1,1]       

 cryst.   s(18) = (    -1          1         -1      )
                  (     0          1          0      )
                  (     1          0          0      )

 cart.    s(18) = (  0.0000000 -1.0000000  0.0000000 )
                  (  0.0000000  0.0000000  1.0000000 )
                  ( -1.0000000  0.0000000  0.0000000 )


      isym = 19     120 deg rotation - cart. axis [1,1,-1]       

 cryst.   s(19) = (     0         -1          0      )
                  (     1         -1          1      )
                  (     0          0          1      )

 cart.    s(19) = (  0.0000000  1.0000000  0.0000000 )
                  (  0.0000000  0.0000000 -1.0000000 )
                  ( -1.0000000  0.0000000  0.0000000 )


      isym = 20     120 deg rotation - cart. axis [1,-1,1]       

 cryst.   s(20) = (     0          0          1      )
                  (    -1          0          0      )
                  (     0         -1          0      )

 cart.    s(20) = (  0.0000000 -1.0000000  0.0000000 )
                  (  0.0000000  0.0000000 -1.0000000 )
                  (  1.0000000  0.0000000  0.0000000 )


      isym = 21     120 deg rotation - cart. axis [1,1,1]        

 cryst.   s(21) = (     1          0          0      )
                  (     1         -1          1      )
                  (     0         -1          0      )

 cart.    s(21) = (  0.0000000  0.0000000  1.0000000 )
                  (  1.0000000  0.0000000  0.0000000 )
                  (  0.0000000  1.0000000  0.0000000 )


      isym = 22     120 deg rotation - cart. axis [-1,1,-1]      

 cryst.   s(22) = (     0         -1          0      )
                  (     0          0         -1      )
                  (     1          0          0      )

 cart.    s(22) = (  0.0000000  0.0000000  1.0000000 )
                  ( -1.0000000  0.0000000  0.0000000 )
                  (  0.0000000 -1.0000000  0.0000000 )


      isym = 23     120 deg rotation - cart. axis [1,-1,-1]      

 cryst.   s(23) = (     0          0          1      )
                  (     0          1          0      )
                  (    -1          1         -1      )

 cart.    s(23) = (  0.0000000  0.0000000 -1.0000000 )
                  ( -1.0000000  0.0000000  0.0000000 )
                  (  0.0000000  1.0000000  0.0000000 )


      isym = 24     120 deg rotation - cart. axis [-1,-1,1]      

 cryst.   s(24) = (    -1          1         -1      )
                  (    -1          0          0      )
                  (     0          0          1      )

 cart.    s(24) = (  0.0000000  0.0000000 -1.0000000 )
                  (  1.0000000  0.0000000  0.0000000 )
                  (  0.0000000 -1.0000000  0.0000000 )


      isym = 25     inversion                                    

 cryst.   s(25) = (    -1          0          0      )
                  (     0         -1          0      )
                  (     0          0         -1      )

 cart.    s(25) = ( -1.0000000  0.0000000  0.0000000 )
                  (  0.0000000 -1.0000000  0.0000000 )
                  (  0.0000000  0.0000000 -1.0000000 )


      isym = 26     inv. 180 deg rotation - cart. axis [0,0,1]   

 cryst.   s(26) = (     0          0         -1      )
                  (    -1          1         -1      )
                  (    -1          0          0      )

 cart.    s(26) = (  1.0000000  0.0000000  0.0000000 )
                  (  0.0000000  1.0000000  0.0000000 )
                  (  0.0000000  0.0000000 -1.0000000 )


      isym = 27     inv. 180 deg rotation - cart. axis [0,1,0]   

 cryst.   s(27) = (     1         -1          1      )
                  (     0          0          1      )
                  (     0          1          0      )

 cart.    s(27) = (  1.0000000  0.0000000  0.0000000 )
                  (  0.0000000 -1.0000000  0.0000000 )
                  (  0.0000000  0.0000000  1.0000000 )


      isym = 28     inv. 180 deg rotation - cart. axis [1,0,0]   

 cryst.   s(28) = (     0          1          0      )
                  (     1          0          0      )
                  (     1         -1          1      )

 cart.    s(28) = ( -1.0000000  0.0000000  0.0000000 )
                  (  0.0000000  1.0000000  0.0000000 )
                  (  0.0000000  0.0000000  1.0000000 )


      isym = 29     inv. 180 deg rotation - cart. axis [1,1,0]   

 cryst.   s(29) = (     0          0          1      )
                  (     0          1          0      )
                  (     1          0          0      )

 cart.    s(29) = (  0.0000000 -1.0000000  0.0000000 )
                  ( -1.0000000  0.0000000  0.0000000 )
                  (  0.0000000  0.0000000  1.0000000 )


      isym = 30     inv. 180 deg rotation - cart. axis [1,-1,0]  

 cryst.   s(30) = (     1          0          0      )
                  (     1         -1          1      )
                  (     0          0          1      )

 cart.    s(30) = (  0.0000000  1.0000000  0.0000000 )
                  (  1.0000000  0.0000000  0.0000000 )
                  (  0.0000000  0.0000000  1.0000000 )


      isym = 31     inv.  90 deg rotation - cart. axis [0,0,-1]  

 cryst.   s(31) = (    -1          1         -1      )
                  (    -1          0          0      )
                  (     0         -1          0      )

 cart.    s(31) = (  0.0000000 -1.0000000  0.0000000 )
                  (  1.0000000  0.0000000  0.0000000 )
                  (  0.0000000  0.0000000 -1.0000000 )


      isym = 32     inv.  90 deg rotation - cart. axis [0,0,1]   

 cryst.   s(32) = (     0         -1          0      )
                  (     0          0         -1      )
                  (    -1          1         -1      )

 cart.    s(32) = (  0.0000000  1.0000000  0.0000000 )
                  ( -1.0000000  0.0000000  0.0000000 )
                  (  0.0000000  0.0000000 -1.0000000 )


      isym = 33     inv. 180 deg rotation - cart. axis [1,0,1]   

 cryst.   s(33) = (    -1          1         -1      )
                  (     0          1          0      )
                  (     0          0          1      )

 cart.    s(33) = (  0.0000000  0.0000000 -1.0000000 )
                  (  0.0000000  1.0000000  0.0000000 )
                  ( -1.0000000  0.0000000  0.0000000 )


      isym = 34     inv. 180 deg rotation - cart. axis [-1,0,1]  

 cryst.   s(34) = (     1          0          0      )
                  (     0          0         -1      )
                  (     0         -1          0      )

 cart.    s(34) = (  0.0000000  0.0000000  1.0000000 )
                  (  0.0000000  1.0000000  0.0000000 )
                  (  1.0000000  0.0000000  0.0000000 )


      isym = 35     inv.  90 deg rotation - cart. axis [0,1,0]   

 cryst.   s(35) = (     0          0          1      )
                  (    -1          0          0      )
                  (    -1          1         -1      )

 cart.    s(35) = (  0.0000000  0.0000000 -1.0000000 )
                  (  0.0000000 -1.0000000  0.0000000 )
                  (  1.0000000  0.0000000  0.0000000 )


      isym = 36     inv.  90 deg rotation - cart. axis [0,-1,0]  

 cryst.   s(36) = (     0         -1          0      )
                  (     1         -1          1      )
                  (     1          0          0      )

 cart.    s(36) = (  0.0000000  0.0000000  1.0000000 )
                  (  0.0000000 -1.0000000  0.0000000 )
                  ( -1.0000000  0.0000000  0.0000000 )


      isym = 37     inv. 180 deg rotation - cart. axis [0,1,1]   

 cryst.   s(37) = (     0         -1          0      )
                  (    -1          0          0      )
                  (     0          0          1      )

 cart.    s(37) = (  1.0000000  0.0000000  0.0000000 )
                  (  0.0000000  0.0000000 -1.0000000 )
                  (  0.0000000 -1.0000000  0.0000000 )


      isym = 38     inv. 180 deg rotation - cart. axis [0,1,-1]  

 cryst.   s(38) = (     1          0          0      )
                  (     0          1          0      )
                  (    -1          1         -1      )

 cart.    s(38) = (  1.0000000  0.0000000  0.0000000 )
                  (  0.0000000  0.0000000  1.0000000 )
                  (  0.0000000  1.0000000  0.0000000 )


      isym = 39     inv.  90 deg rotation - cart. axis [-1,0,0]  

 cryst.   s(39) = (     0          0          1      )
                  (     1         -1          1      )
                  (     0         -1          0      )

 cart.    s(39) = ( -1.0000000  0.0000000  0.0000000 )
                  (  0.0000000  0.0000000 -1.0000000 )
                  (  0.0000000  1.0000000  0.0000000 )


      isym = 40     inv.  90 deg rotation - cart. axis [1,0,0]   

 cryst.   s(40) = (    -1          1         -1      )
                  (     0          0         -1      )
                  (     1          0          0      )

 cart.    s(40) = ( -1.0000000  0.0000000  0.0000000 )
                  (  0.0000000  0.0000000  1.0000000 )
                  (  0.0000000 -1.0000000  0.0000000 )


      isym = 41     inv. 120 deg rotation - cart. axis [-1,-1,-1]

 cryst.   s(41) = (    -1          0          0      )
                  (     0          0          1      )
                  (     1         -1          1      )

 cart.    s(41) = (  0.0000000 -1.0000000  0.0000000 )
                  (  0.0000000  0.0000000 -1.0000000 )
                  ( -1.0000000  0.0000000  0.0000000 )


      isym = 42     inv. 120 deg rotation - cart. axis [-1,1,1]  

 cryst.   s(42) = (     1         -1          1      )
                  (     0         -1          0      )
                  (    -1          0          0      )

 cart.    s(42) = (  0.0000000  1.0000000  0.0000000 )
                  (  0.0000000  0.0000000 -1.0000000 )
                  (  1.0000000  0.0000000  0.0000000 )


      isym = 43     inv. 120 deg rotation - cart. axis [1,1,-1]  

 cryst.   s(43) = (     0          1          0      )
                  (    -1          1         -1      )
                  (     0          0         -1      )

 cart.    s(43) = (  0.0000000 -1.0000000  0.0000000 )
                  (  0.0000000  0.0000000  1.0000000 )
                  (  1.0000000  0.0000000  0.0000000 )


      isym = 44     inv. 120 deg rotation - cart. axis [1,-1,1]  

 cryst.   s(44) = (     0          0         -1      )
                  (     1          0          0      )
                  (     0          1          0      )

 cart.    s(44) = (  0.0000000  1.0000000  0.0000000 )
                  (  0.0000000  0.0000000  1.0000000 )
                  ( -1.0000000  0.0000000  0.0000000 )


      isym = 45     inv. 120 deg rotation - cart. axis [1,1,1]   

 cryst.   s(45) = (    -1          0          0      )
                  (    -1          1         -1      )
                  (     0          1          0      )

 cart.    s(45) = (  0.0000000  0.0000000 -1.0000000 )
                  ( -1.0000000  0.0000000  0.0000000 )
                  (  0.0000000 -1.0000000  0.0000000 )


      isym = 46     inv. 120 deg rotation - cart. axis [-1,1,-1] 

 cryst.   s(46) = (     0          1          0      )
                  (     0          0          1      )
                  (    -1          0          0      )

 cart.    s(46) = (  0.0000000  0.0000000 -1.0000000 )
                  (  1.0000000  0.0000000  0.0000000 )
                  (  0.0000000  1.0000000  0.0000000 )


      isym = 47     inv. 120 deg rotation - cart. axis [1,-1,-1] 

 cryst.   s(47) = (     0          0         -1      )
                  (     0         -1          0      )
                  (     1         -1          1      )

 cart.    s(47) = (  0.0000000  0.0000000  1.0000000 )
                  (  1.0000000  0.0000000  0.0000000 )
                  (  0.0000000 -1.0000000  0.0000000 )


      isym = 48     inv. 120 deg rotation - cart. axis [-1,-1,1] 

 cryst.   s(48) = (     1         -1          1      )
                  (     1          0          0      )
                  (     0          0         -1      )

 cart.    s(48) = (  0.0000000  0.0000000  1.0000000 )
                  ( -1.0000000  0.0000000  0.0000000 )
                  (  0.0000000  1.0000000  0.0000000 )


     point group O_h (m-3m) 
     there are 10 classes
     the character table:

       E     8C3   3C2   6C4   6C2'  i     8S6   3s_h  6S4   6s_d 
A_1g   1.00  1.00  1.00  1.00  1.00  1.00  1.00  1.00  1.00  1.00
A_2g   1.00  1.00  1.00 -1.00 -1.00  1.00  1.00  1.00 -1.00 -1.00
E_g    2.00 -1.00  2.00  0.00  0.00  2.00 -1.00  2.00  0.00  0.00
T_1g   3.00  0.00 -1.00  1.00 -1.00  3.00  0.00 -1.00  1.00 -1.00
T_2g   3.00  0.00 -1.00 -1.00  1.00  3.00  0.00 -1.00 -1.00  1.00
A_1u   1.00  1.00  1.00  1.00  1.00 -1.00 -1.00 -1.00 -1.00 -1.00
A_2u   1.00  1.00  1.00 -1.00 -1.00 -1.00 -1.00 -1.00  1.00  1.00
E_u    2.00 -1.00  2.00  0.00  0.00 -2.00  1.00 -2.00  0.00  0.00
T_1u   3.00  0.00 -1.00  1.00 -1.00 -3.00  0.00  1.00 -1.00  1.00
T_2u   3.00  0.00 -1.00 -1.00  1.00 -3.00  0.00  1.00  1.00 -1.00

     the symmetry operations in each class and the name of the first element:

     E        1
          identity                                               
     8C3     17   19   20   18   24   21   22   23
          120 deg rotation - cart. axis [-1,-1,-1]               
     3C2      2    4    3
          180 deg rotation - cart. axis [0,0,1]                  
     6C4      7    8   15   16   12   11
           90 deg rotation - cart. axis [0,0,-1]                 
     6C2'     5    6   14   13   10    9
          180 deg rotation - cart. axis [1,1,0]                  
     i       25
          inversion                                              
     8S6     41   43   44   42   48   45   46   47
          inv. 120 deg rotation - cart. axis [-1,-1,-1]          
     3s_h    26   28   27
          inv. 180 deg rotation - cart. axis [0,0,1]             
     6S4     31   32   39   40   36   35
          inv.  90 deg rotation - cart. axis [0,0,-1]            
     6s_d    29   30   38   37   34   33
          inv. 180 deg rotation - cart. axis [1,1,0]             

   Cartesian axes

     site n.     atom                  positions (alat units)
         1           Fe  tau(   1) = (   0.0000000   0.0000000   0.0000000  )

   Crystallographic axes

     site n.     atom                  positions (cryst. coord.)
         1           Fe  tau(   1) = (  0.0000000  0.0000000  0.0000000  )

     number of k points=    29  Gaussian smearing, width (Ry)=  0.0100
                       cart. coord. in units 2pi/alat
        k(    1) = (   0.0000000   0.0000000   0.0000000), wk =   0.0019531
        k(    2) = (   0.0000000  -0.1250000   0.1250000), wk =   0.0234375
        k(    3) = (   0.0000000  -0.2500000   0.2500000), wk =   0.0234375
        k(    4) = (   0.0000000  -0.3750000   0.3750000), wk =   0.0234375
        k(    5) = (   0.0000000   0.5000000  -0.5000000), wk =   0.0117188
        k(    6) = (  -0.1250000  -0.1250000   0.2500000), wk =   0.0468750
        k(    7) = (  -0.1250000  -0.2500000   0.3750000), wk =   0.0937500
        k(    8) = (  -0.1250000   0.6250000  -0.5000000), wk =   0.0937500
        k(    9) = (  -0.2500000   0.7500000  -0.5000000), wk =   0.0468750
        k(   10) = (  -0.2500000   0.6250000  -0.3750000), wk =   0.0468750
        k(   11) = (   0.0000000   0.0000000   0.2500000), wk =   0.0117188
        k(   12) = (   0.0000000  -0.1250000   0.3750000), wk =   0.0468750
        k(   13) = (   0.0000000  -0.2500000   0.5000000), wk =   0.0468750
        k(   14) = (   0.0000000   0.6250000  -0.3750000), wk =   0.0234375
        k(   15) = (  -0.1250000  -0.1250000   0.5000000), wk =   0.0468750
        k(   16) = (  -0.1250000   0.7500000  -0.3750000), wk =   0.0937500
        k(   17) = (  -0.2500000   0.2500000   0.2500000), wk =   0.0156250
        k(   18) = (  -0.2500000   0.7500000  -0.2500000), wk =   0.0156250
        k(   19) = (   0.6250000  -0.6250000   0.2500000), wk =   0.0468750
        k(   20) = (   0.5000000  -0.5000000   0.2500000), wk =   0.0234375
        k(   21) = (   0.5000000  -0.6250000   0.3750000), wk =   0.0468750
        k(   22) = (   0.0000000   0.0000000   0.5000000), wk =   0.0117188
        k(   23) = (   0.0000000  -0.1250000   0.6250000), wk =   0.0468750
        k(   24) = (   0.0000000   0.7500000  -0.2500000), wk =   0.0234375
        k(   25) = (  -0.1250000   0.8750000  -0.2500000), wk =   0.0468750
        k(   26) = (   0.5000000  -0.5000000   0.5000000), wk =   0.0039062
        k(   27) = (   0.0000000   0.0000000   0.7500000), wk =   0.0117188
        k(   28) = (   0.0000000   0.8750000  -0.1250000), wk =   0.0234375
        k(   29) = (   0.0000000   0.0000000  -1.0000000), wk =   0.0019531

                       cryst. coord.
        k(    1) = (   0.0000000   0.0000000   0.0000000), wk =   0.0019531
        k(    2) = (   0.0000000   0.0000000   0.1250000), wk =   0.0234375
        k(    3) = (   0.0000000   0.0000000   0.2500000), wk =   0.0234375
        k(    4) = (   0.0000000   0.0000000   0.3750000), wk =   0.0234375
        k(    5) = (   0.0000000   0.0000000  -0.5000000), wk =   0.0117188
        k(    6) = (   0.0000000   0.1250000   0.2500000), wk =   0.0468750
        k(    7) = (   0.0000000   0.1250000   0.3750000), wk =   0.0937500
        k(    8) = (   0.0000000   0.1250000  -0.5000000), wk =   0.0937500
        k(    9) = (   0.0000000   0.2500000  -0.5000000), wk =   0.0468750
        k(   10) = (   0.0000000   0.2500000  -0.3750000), wk =   0.0468750
        k(   11) = (   0.1250000   0.1250000   0.1250000), wk =   0.0117188
        k(   12) = (   0.1250000   0.1250000   0.2500000), wk =   0.0468750
        k(   13) = (   0.1250000   0.1250000   0.3750000), wk =   0.0468750
        k(   14) = (   0.1250000   0.1250000  -0.5000000), wk =   0.0234375
        k(   15) = (   0.1250000   0.2500000   0.3750000), wk =   0.0468750
        k(   16) = (   0.1250000   0.2500000  -0.5000000), wk =   0.0937500
        k(   17) = (   0.1250000   0.3750000   0.1250000), wk =   0.0156250
        k(   18) = (   0.1250000   0.3750000  -0.3750000), wk =   0.0156250
        k(   19) = (   0.1250000  -0.5000000   0.1250000), wk =   0.0468750
        k(   20) = (   0.1250000  -0.3750000   0.1250000), wk =   0.0234375
        k(   21) = (   0.1250000  -0.3750000   0.2500000), wk =   0.0468750
        k(   22) = (   0.2500000   0.2500000   0.2500000), wk =   0.0117188
        k(   23) = (   0.2500000   0.2500000   0.3750000), wk =   0.0468750
        k(   24) = (   0.2500000   0.2500000  -0.5000000), wk =   0.0234375
        k(   25) = (   0.2500000   0.3750000  -0.5000000), wk =   0.0468750
        k(   26) = (   0.2500000  -0.2500000   0.2500000), wk =   0.0039062
        k(   27) = (   0.3750000   0.3750000   0.3750000), wk =   0.0117188
        k(   28) = (   0.3750000   0.3750000  -0.5000000), wk =   0.0234375
        k(   29) = (  -0.5000000  -0.5000000  -0.5000000), wk =   0.0019531

     Dense  grid:     2243 G-vectors     FFT dimensions: (  18,  18,  18)

     Dynamical RAM for                 wfc:       0.05 MB

     Dynamical RAM for     wfc (w. buffer):       3.08 MB

     Dynamical RAM for           str. fact:       0.03 MB

     Dynamical RAM for           local pot:       0.00 MB

     Dynamical RAM for          nlocal pot:       0.08 MB

     Dynamical RAM for                qrad:       1.02 MB

     Dynamical RAM for          rho,v,vnew:       0.47 MB

     Dynamical RAM for               rhoin:       0.16 MB

     Dynamical RAM for            rho*nmix:       1.10 MB

     Dynamical RAM for           G-vectors:       0.15 MB

     Dynamical RAM for          h,s,v(r/c):       0.03 MB

     Dynamical RAM for          <psi|beta>:       0.00 MB

     Dynamical RAM for                 psi:       0.10 MB

     Dynamical RAM for                hpsi:       0.10 MB

     Dynamical RAM for      wfcinit/wfcrot:       0.11 MB

     Estimated static dynamical RAM per process >       5.32 MB

     Estimated max dynamical RAM per process >       6.65 MB
     Generating pointlists ...
     new r_m :   0.3572 (alat units)  1.8244 (a.u.) for type    1

     Initial potential from superposition of free atoms

     starting charge   15.95499, renormalised to   16.00000
     Starting wfcs are random

     total cpu time spent up to now is        0.1 secs

     Self-consistent Calculation

     iteration #  1     ecut=    40.00 Ry     beta= 0.70
     Davidson diagonalization with overlap

---- Real-time Memory Report at c_bands before calling an iterative solver
            60 MiB given to the printing process from OS
             0 MiB allocation reported by mallinfo(arena+hblkhd)
          8347 MiB available memory on the node where the printing process lives
------------------
     ethr =  1.00E-02,  avg # of iterations =  9.5

     total cpu time spent up to now is        0.8 secs

     total energy              =    -236.05420420 Ry
     estimated scf accuracy    <       0.29193766 Ry

     total magnetization       =     1.51 Bohr mag/cell
     absolute magnetization    =     1.51 Bohr mag/cell

     iteration #  2     ecut=    40.00 Ry     beta= 0.70
     Davidson diagonalization with overlap

---- Real-time Memory Report at c_bands before calling an iterative solver
            64 MiB given to the printing process from OS
             0 MiB allocation reported by mallinfo(arena+hblkhd)
          8348 MiB available memory on the node where the printing process lives
------------------
     ethr =  1.82E-03,  avg # of iterations =  2.1

     total cpu time spent up to now is        1.0 secs

     total energy              =    -236.15016310 Ry
     estimated scf accuracy    <       0.18716358 Ry

     total magnetization       =     1.62 Bohr mag/cell
     absolute magnetization    =     1.65 Bohr mag/cell

     iteration #  3     ecut=    40.00 Ry     beta= 0.70
     Davidson diagonalization with overlap

---- Real-time Memory Report at c_bands before calling an iterative solver
            64 MiB given to the printing process from OS
             0 MiB allocation reported by mallinfo(arena+hblkhd)
          8347 MiB available memory on the node where the printing process lives
------------------
     ethr =  1.17E-03,  avg # of iterations =  1.7

     total cpu time spent up to now is        1.2 secs

     total energy              =    -236.18767502 Ry
     estimated scf accuracy    <       0.00135411 Ry

     total magnetization       =     1.61 Bohr mag/cell
     absolute magnetization    =     1.64 Bohr mag/cell

     iteration #  4     ecut=    40.00 Ry     beta= 0.70
     Davidson diagonalization with overlap

---- Real-time Memory Report at c_bands before calling an iterative solver
            65 MiB given to the printing process from OS
             0 MiB allocation reported by mallinfo(arena+hblkhd)
          8347 MiB available memory on the node where the printing process lives
------------------
     ethr =  8.46E-06,  avg # of iterations =  4.1

     total cpu time spent up to now is        1.5 secs

     total energy              =    -236.18900675 Ry
     estimated scf accuracy    <       0.00018723 Ry

     total magnetization       =     1.61 Bohr mag/cell
     absolute magnetization    =     1.67 Bohr mag/cell

     iteration #  5     ecut=    40.00 Ry     beta= 0.70
     Davidson diagonalization with overlap

---- Real-time Memory Report at c_bands before calling an iterative solver
            65 MiB given to the printing process from OS
             0 MiB allocation reported by mallinfo(arena+hblkhd)
          8347 MiB available memory on the node where the printing process lives
------------------
     ethr =  1.17E-06,  avg # of iterations =  2.6

     total cpu time spent up to now is        1.7 secs

     total energy              =    -236.18911693 Ry
     estimated scf accuracy    <       0.00000758 Ry

     total magnetization       =     1.62 Bohr mag/cell
     absolute magnetization    =     1.68 Bohr mag/cell

     iteration #  6     ecut=    40.00 Ry     beta= 0.70
     Davidson diagonalization with overlap

---- Real-time Memory Report at c_bands before calling an iterative solver
            65 MiB given to the printing process from OS
             0 MiB allocation reported by mallinfo(arena+hblkhd)
          8347 MiB available memory on the node where the printing process lives
------------------
     ethr =  4.74E-08,  avg # of iterations =  2.6

     total cpu time spent up to now is        1.9 secs

     total energy              =    -236.18912233 Ry
     estimated scf accuracy    <       0.00000038 Ry

     total magnetization       =     1.62 Bohr mag/cell
     absolute magnetization    =     1.69 Bohr mag/cell

     iteration #  7     ecut=    40.00 Ry     beta= 0.70
     Davidson diagonalization with overlap

---- Real-time Memory Report at c_bands before calling an iterative solver
            65 MiB given to the printing process from OS
             0 MiB allocation reported by mallinfo(arena+hblkhd)
          8346 MiB available memory on the node where the printing process lives
------------------
     ethr =  2.35E-09,  avg # of iterations =  2.8

     total cpu time spent up to now is        2.1 secs

     total energy              =    -236.18912253 Ry
     estimated scf accuracy    <       0.00000011 Ry

     total magnetization       =     1.62 Bohr mag/cell
     absolute magnetization    =     1.69 Bohr mag/cell

     iteration #  8     ecut=    40.00 Ry     beta= 0.70
     Davidson diagonalization with overlap

---- Real-time Memory Report at c_bands before calling an iterative solver
            65 MiB given to the printing process from OS
             0 MiB allocation reported by mallinfo(arena+hblkhd)
          8346 MiB available memory on the node where the printing process lives
------------------
     ethr =  6.98E-10,  avg # of iterations =  2.1

     total cpu time spent up to now is        2.3 secs

     total energy              =    -236.18912270 Ry
     estimated scf accuracy    <          1.5E-09 Ry

     total magnetization       =     1.62 Bohr mag/cell
     absolute magnetization    =     1.69 Bohr mag/cell

     iteration #  9     ecut=    40.00 Ry     beta= 0.70
     Davidson diagonalization with overlap

---- Real-time Memory Report at c_bands before calling an iterative solver
            65 MiB given to the printing process from OS
             0 MiB allocation reported by mallinfo(arena+hblkhd)
          8346 MiB available memory on the node where the printing process lives
------------------
     ethr =  9.07E-12,  avg # of iterations =  4.1

     total cpu time spent up to now is        2.6 secs

     total energy              =    -236.18912270 Ry
     estimated scf accuracy    <          1.7E-10 Ry

     total magnetization       =     1.62 Bohr mag/cell
     absolute magnetization    =     1.69 Bohr mag/cell

     iteration # 10     ecut=    40.00 Ry     beta= 0.70
     Davidson diagonalization with overlap

---- Real-time Memory Report at c_bands before calling an iterative solver
            65 MiB given to the printing process from OS
             0 MiB allocation reported by mallinfo(arena+hblkhd)
          8346 MiB available memory on the node where the printing process lives
------------------
     ethr =  1.08E-12,  avg # of iterations =  2.1

     Magnetic moment per site  (integrated on atomic sphere of radius R)
     atom   1 (R=0.357)  charge= 14.2342  magn=  1.6342

     total cpu time spent up to now is        2.8 secs

     End of self-consistent calculation

 ------ SPIN UP ------------


          k = 0.0000 0.0000 0.0000 (   321 PWs)   bands (ev):

   -67.5963 -32.8739 -32.8739 -32.8739  13.3057  19.6486  19.6486  19.6486
    21.2600  21.2600  48.9310  48.9310

     occupation numbers 
     1.0000   1.0000   1.0000   1.0000   1.0000   1.0000   1.0000   1.0000
     1.0000   1.0000   0.0000   0.0000

          k = 0.0000-0.1250 0.1250 (   293 PWs)   bands (ev):

   -67.5770 -32.9130 -32.8662 -32.8372  14.0091  19.9009  19.9490  20.6392
    21.4036  22.0403  46.3252  48.2106

     occupation numbers 
     1.0000   1.0000   1.0000   1.0000   1.0000   1.0000   1.0000   1.0000
     1.0000   1.0000   0.0000   0.0000

          k = 0.0000-0.2500 0.2500 (   281 PWs)   bands (ev):

   -67.5307 -33.1211 -32.9217 -32.8212  15.7683  19.3774  20.0560  21.7434
    21.9474  22.1628  40.9719  45.5258

     occupation numbers 
     1.0000   1.0000   1.0000   1.0000   1.0000   1.0000   1.0000   1.0000
     1.0000   1.0000   0.0000   0.0000

          k = 0.0000-0.3750 0.3750 (   286 PWs)   bands (ev):

   -67.4843 -33.3630 -32.9974 -32.8352  16.7992  18.8158  21.1710  21.8581
    22.0909  23.3758  34.9952  43.0531

     occupation numbers 
     1.0000   1.0000   1.0000   1.0000   1.0000   1.0000   1.0000   1.0000
     1.0000   0.0002   0.0000   0.0000

          k = 0.0000 0.5000-0.5000 (   276 PWs)   bands (ev):

   -67.4648 -33.4268 -33.0194 -32.8168  16.9211  18.7219  22.1149  22.1881
    23.1431  24.2947  32.1918  42.1663

     occupation numbers 
     1.0000   1.0000   1.0000   1.0000   1.0000   1.0000   1.0000   1.0000
     0.1165   0.0000   0.0000   0.0000

          k =-0.1250-0.1250 0.2500 (   286 PWs)   bands (ev):

   -67.5443 -33.0545 -32.8960 -32.8527  15.2801  19.5661  19.7518  21.4907
    21.6601  22.1470  43.5344  44.7229

     occupation numbers 
     1.0000   1.0000   1.0000   1.0000   1.0000   1.0000   1.0000   1.0000
     1.0000   1.0000   0.0000   0.0000

          k =-0.1250-0.2500 0.3750 (   283 PWs)   bands (ev):

   -67.4979 -33.2561 -32.9709 -32.8594  16.9379  19.1529  19.7950  21.6043
    22.2785  23.3524  38.1280  41.8305

     occupation numbers 
     1.0000   1.0000   1.0000   1.0000   1.0000   1.0000   1.0000   1.0000
     1.0000   0.0004   0.0000   0.0000

          k =-0.1250 0.6250-0.5000 (   285 PWs)   bands (ev):

   -67.4649 -33.3981 -33.0456 -32.8660  17.2332  18.7551  20.7346  21.9799
    22.5301  25.3917  32.9917  40.2734

     occupation numbers 
     1.0000   1.0000   1.0000   1.0000   1.0000   1.0000   1.0000   1.0000
     1.0000   0.0000   0.0000   0.0000

          k =-0.2500 0.7500-0.5000 (   289 PWs)   bands (ev):

   -67.4650 -33.3376 -33.0943 -32.9027  17.9187  18.7245  19.6326  21.6358
    22.2667  26.0184  35.4708  36.4974

     occupation numbers 
     1.0000   1.0000   1.0000   1.0000   1.0000   1.0000   1.0000   1.0000
     1.0000   0.0000   0.0000   0.0000

          k =-0.2500 0.6250-0.3750 (   289 PWs)   bands (ev):

   -67.4513 -33.3327 -33.1691 -32.9154  18.0237  18.7761  19.6648  21.8802
    22.3587  28.7757  31.9221  35.3604

     occupation numbers 
     1.0000   1.0000   1.0000   1.0000   1.0000   1.0000   1.0000   1.0000
     1.0000   0.0000   0.0000   0.0000

          k = 0.0000 0.0000 0.2500 (   289 PWs)   bands (ev):

   -67.5587 -32.9398 -32.8877 -32.8877  14.6760  20.2066  20.2066  20.6073
    21.0156  22.2218  45.5111  48.0572

     occupation numbers 
     1.0000   1.0000   1.0000   1.0000   1.0000   1.0000   1.0000   1.0000
     1.0000   1.0000   0.0000   0.0000

          k = 0.0000-0.1250 0.3750 (   289 PWs)   bands (ev):

   -67.5143 -33.1317 -32.9739 -32.8993  16.2689  19.7199  19.9138  20.9577
    21.6437  22.4452  41.3177  44.8410

     occupation numbers 
     1.0000   1.0000   1.0000   1.0000   1.0000   1.0000   1.0000   1.0000
     1.0000   1.0000   0.0000   0.0000

          k = 0.0000-0.2500 0.5000 (   286 PWs)   bands (ev):

   -67.4697 -33.3384 -33.0286 -32.9103  17.2484  19.3077  19.7272  21.5405
    23.3558  23.5695  35.3790  42.9738

     occupation numbers 
     1.0000   1.0000   1.0000   1.0000   1.0000   1.0000   1.0000   1.0000
     0.0003   0.0000   0.0000   0.0000

          k = 0.0000 0.6250-0.3750 (   284 PWs)   bands (ev):

   -67.4512 -33.4170 -33.0578 -32.9148  17.2367  19.1025  19.9631  21.5967
    24.2045  25.4766  32.0055  42.2722

     occupation numbers 
     1.0000   1.0000   1.0000   1.0000   1.0000   1.0000   1.0000   1.0000
     0.0000   0.0000   0.0000   0.0000

          k =-0.1250-0.1250 0.5000 (   283 PWs)   bands (ev):

   -67.4717 -33.2518 -33.0454 -32.9465  17.5307  19.1766  20.0058  21.0668
    22.6221  23.8706  38.8735  39.3166

     occupation numbers 
     1.0000   1.0000   1.0000   1.0000   1.0000   1.0000   1.0000   1.0000
     1.0000   0.0000   0.0000   0.0000

          k =-0.1250 0.7500-0.3750 (   281 PWs)   bands (ev):

   -67.4414 -33.3456 -33.1184 -32.9546  17.9321  18.9110  19.6291  21.6793
    23.3424  27.0167  33.4759  37.4992

     occupation numbers 
     1.0000   1.0000   1.0000   1.0000   1.0000   1.0000   1.0000   1.0000
     0.0005   0.0000   0.0000   0.0000

          k =-0.2500 0.2500 0.2500 (   294 PWs)   bands (ev):

   -67.5096 -33.2395 -32.9165 -32.9165  16.8557  19.0429  19.0429  21.7203
    21.7203  23.1548  40.8779  40.8779

     occupation numbers 
     1.0000   1.0000   1.0000   1.0000   1.0000   1.0000   1.0000   1.0000
     1.0000   0.0944   0.0000   0.0000

          k =-0.2500 0.7500-0.2500 (   285 PWs)   bands (ev):

   -67.4297 -33.2750 -33.2750 -32.9648  18.4431  18.4431  19.0717  22.6537
    22.6537  31.1253  31.1253  33.8543

     occupation numbers 
     1.0000   1.0000   1.0000   1.0000   1.0000   1.0000   1.0000   1.0000
     1.0000   0.0000   0.0000   0.0000

          k = 0.6250-0.6250 0.2500 (   286 PWs)   bands (ev):

   -67.4747 -33.3303 -33.0181 -32.9119  17.9112  18.7419  19.5963  21.9319
    21.9882  25.8185  35.5749  39.1143

     occupation numbers 
     1.0000   1.0000   1.0000   1.0000   1.0000   1.0000   1.0000   1.0000
     1.0000   0.0000   0.0000   0.0000

          k = 0.5000-0.5000 0.2500 (   282 PWs)   bands (ev):

   -67.4602 -33.3459 -33.0684 -32.9128  17.9070  18.7476  20.5913  21.9889
    22.0795  27.8036  32.2304  38.6022

     occupation numbers 
     1.0000   1.0000   1.0000   1.0000   1.0000   1.0000   1.0000   1.0000
     1.0000   0.0000   0.0000   0.0000

          k = 0.5000-0.6250 0.3750 (   292 PWs)   bands (ev):

   -67.4584 -33.2938 -33.1268 -32.9793  18.3854  18.8018  19.4594  21.8800
    21.9369  28.9187  33.4987  34.8818

     occupation numbers 
     1.0000   1.0000   1.0000   1.0000   1.0000   1.0000   1.0000   1.0000
     1.0000   0.0000   0.0000   0.0000

          k = 0.0000 0.0000 0.5000 (   293 PWs)   bands (ev):

   -67.4746 -33.1716 -33.0487 -33.0487  17.2919  19.1482  20.6422  20.6422
    21.6611  23.2244  42.2044  42.2044

     occupation numbers 
     1.0000   1.0000   1.0000   1.0000   1.0000   1.0000   1.0000   1.0000
     1.0000   0.0208   0.0000   0.0000

          k = 0.0000-0.1250 0.6250 (   283 PWs)   bands (ev):

   -67.4344 -33.2799 -33.1043 -33.0667  17.7896  18.4373  20.7268  21.3472
    23.2213  25.6783  36.5295  39.5186

     occupation numbers 
     1.0000   1.0000   1.0000   1.0000   1.0000   1.0000   1.0000   1.0000
     0.0225   0.0000   0.0000   0.0000

          k = 0.0000 0.7500-0.2500 (   276 PWs)   bands (ev):

   -67.4177 -33.3401 -33.1194 -33.0530  17.7212  18.3502  20.8044  21.4837
    24.2158  28.7952  32.3032  38.4514

     occupation numbers 
     1.0000   1.0000   1.0000   1.0000   1.0000   1.0000   1.0000   1.0000
     0.0000   0.0000   0.0000   0.0000

          k =-0.1250 0.8750-0.2500 (   280 PWs)   bands (ev):

   -67.4080 -33.2965 -33.2082 -33.0815  17.7632  17.7899  20.7400  22.6017
    23.5420  29.3719  34.3386  35.0189

     occupation numbers 
     1.0000   1.0000   1.0000   1.0000   1.0000   1.0000   1.0000   1.0000
     0.0000   0.0000   0.0000   0.0000

          k = 0.5000-0.5000 0.5000 (   276 PWs)   bands (ev):

   -67.4555 -33.1099 -33.1099 -33.1099  19.1504  19.1504  19.1504  22.2359
    22.2359  33.1116  33.1116  33.1116

     occupation numbers 
     1.0000   1.0000   1.0000   1.0000   1.0000   1.0000   1.0000   1.0000
     1.0000   0.0000   0.0000   0.0000

          k = 0.0000 0.0000 0.7500 (   265 PWs)   bands (ev):

   -67.3988 -33.2209 -33.1633 -33.1633  17.5660  17.7863  22.7017  22.7017
    23.1965  28.5632  36.5216  36.5216

     occupation numbers 
     1.0000   1.0000   1.0000   1.0000   1.0000   1.0000   0.9997   0.9997
     0.0403   0.0000   0.0000   0.0000

          k = 0.0000 0.8750-0.1250 (   274 PWs)   bands (ev):

   -67.3843 -33.2859 -33.2069 -33.1883  17.1635  17.2929  22.6874  23.0710
    23.8430  31.8879  32.9842  35.0762

     occupation numbers 
     1.0000   1.0000   1.0000   1.0000   1.0000   1.0000   0.9998   0.3291
     0.0000   0.0000   0.0000   0.0000

          k = 0.0000 0.0000-1.0000 (   266 PWs)   bands (ev):

   -67.3702 -33.2384 -33.2384 -33.2384  17.0134  17.0134  23.8218  23.8218
    23.8218  33.6392  33.6392  33.6392

     occupation numbers 
     1.0000   1.0000   1.0000   1.0000   1.0000   1.0000   0.0000   0.0000
     0.0000   0.0000   0.0000   0.0000

 ------ SPIN DOWN ----------


          k = 0.0000 0.0000 0.0000 (   321 PWs)   bands (ev):

   -66.1810 -31.0379 -31.0379 -31.0379  13.3881  21.0006  21.0006  21.0006
    23.7774  23.7774  48.7681  48.7681

     occupation numbers 
     1.0000   1.0000   1.0000   1.0000   1.0000   1.0000   1.0000   1.0000
     0.0000   0.0000   0.0000   0.0000

          k = 0.0000-0.1250 0.1250 (   293 PWs)   bands (ev):

   -66.1614 -31.0763 -31.0273 -30.9969  14.0976  21.2218  21.2733  22.0075
    23.8552  24.5384  46.4664  48.1791

     occupation numbers 
     1.0000   1.0000   1.0000   1.0000   1.0000   1.0000   1.0000   1.0000
     0.0000   0.0000   0.0000   0.0000

          k = 0.0000-0.2500 0.2500 (   281 PWs)   bands (ev):

   -66.1145 -31.2955 -31.0854 -30.9783  15.9467  20.6410  21.3087  23.3768
    23.9891  24.6758  41.4740  45.6370

     occupation numbers 
     1.0000   1.0000   1.0000   1.0000   1.0000   1.0000   1.0000   0.0001
     0.0000   0.0000   0.0000   0.0000

          k = 0.0000-0.3750 0.3750 (   286 PWs)   bands (ev):

   -66.0673 -31.5510 -31.1633 -30.9952  17.5369  20.0343  21.8446  24.1471
    24.4049  24.9069  35.7502  43.1399

     occupation numbers 
     1.0000   1.0000   1.0000   1.0000   1.0000   1.0000   1.0000   0.0000
     0.0000   0.0000   0.0000   0.0000

          k = 0.0000 0.5000-0.5000 (   276 PWs)   bands (ev):

   -66.0475 -31.6161 -31.1864 -30.9745  17.9176  19.9163  23.1935  24.3525
    24.6823  25.8880  33.2086  42.2277

     occupation numbers 
     1.0000   1.0000   1.0000   1.0000   1.0000   1.0000   0.0431   0.0000
     0.0000   0.0000   0.0000   0.0000

          k =-0.1250-0.1250 0.2500 (   286 PWs)   bands (ev):

   -66.1283 -31.2257 -31.0587 -31.0122  15.4009  20.8433  21.0672  23.0521
    23.8171  24.6458  43.8906  44.9958

     occupation numbers 
     1.0000   1.0000   1.0000   1.0000   1.0000   1.0000   1.0000   0.4025
     0.0000   0.0000   0.0000   0.0000

          k =-0.1250-0.2500 0.3750 (   283 PWs)   bands (ev):

   -66.0811 -31.4375 -31.1369 -31.0195  17.3473  20.3919  20.9200  23.7645
    24.6445  24.8589  38.7269  42.1699

     occupation numbers 
     1.0000   1.0000   1.0000   1.0000   1.0000   1.0000   1.0000   0.0000
     0.0000   0.0000   0.0000   0.0000

          k =-0.1250 0.6250-0.5000 (   285 PWs)   bands (ev):

   -66.0476 -31.5872 -31.2146 -31.0273  18.2058  19.9485  21.7682  24.0799
    24.6628  26.6036  33.8584  40.5944

     occupation numbers 
     1.0000   1.0000   1.0000   1.0000   1.0000   1.0000   1.0000   0.0000
     0.0000   0.0000   0.0000   0.0000

          k =-0.2500 0.7500-0.5000 (   289 PWs)   bands (ev):

   -66.0477 -31.5235 -31.2672 -31.0658  18.7704  20.0312  20.6226  23.7302
    24.5313  27.2360  36.1531  36.9929

     occupation numbers 
     1.0000   1.0000   1.0000   1.0000   1.0000   1.0000   1.0000   0.0000
     0.0000   0.0000   0.0000   0.0000

          k =-0.2500 0.6250-0.3750 (   289 PWs)   bands (ev):

   -66.0338 -31.5187 -31.3461 -31.0789  19.0943  19.9757  20.8172  23.9894
    24.4362  29.7047  32.7798  35.8898

     occupation numbers 
     1.0000   1.0000   1.0000   1.0000   1.0000   1.0000   1.0000   0.0000
     0.0000   0.0000   0.0000   0.0000

          k = 0.0000 0.0000 0.2500 (   289 PWs)   bands (ev):

   -66.1428 -31.1049 -31.0493 -31.0493  14.7782  21.5199  21.5199  21.9796
    23.3453  24.7578  45.7165  48.2054

     occupation numbers 
     1.0000   1.0000   1.0000   1.0000   1.0000   1.0000   1.0000   1.0000
     0.0005   0.0000   0.0000   0.0000

          k = 0.0000-0.1250 0.3750 (   289 PWs)   bands (ev):

   -66.0978 -31.3070 -31.1412 -31.0615  16.5101  21.0003  21.3859  22.8863
    23.0639  24.9109  41.8245  45.1100

     occupation numbers 
     1.0000   1.0000   1.0000   1.0000   1.0000   1.0000   1.0000   0.9302
     0.3558   0.0000   0.0000   0.0000

          k = 0.0000-0.2500 0.5000 (   286 PWs)   bands (ev):

   -66.0525 -31.5254 -31.1963 -31.0739  18.0629  20.5454  21.1160  23.4055
    24.8790  25.3861  36.1081  43.2588

     occupation numbers 
     1.0000   1.0000   1.0000   1.0000   1.0000   1.0000   1.0000   0.0000
     0.0000   0.0000   0.0000   0.0000

          k = 0.0000 0.6250-0.3750 (   284 PWs)   bands (ev):

   -66.0337 -31.6075 -31.2262 -31.0790  18.3512  20.3261  21.4199  23.5632
    25.7923  26.5883  32.9737  42.5553

     occupation numbers 
     1.0000   1.0000   1.0000   1.0000   1.0000   1.0000   1.0000   0.0000
     0.0000   0.0000   0.0000   0.0000

          k =-0.1250-0.1250 0.5000 (   283 PWs)   bands (ev):

   -66.0546 -31.4341 -31.2141 -31.1114  18.1444  20.7450  21.2372  22.7854
    24.3774  25.6064  39.5398  39.7603

     occupation numbers 
     1.0000   1.0000   1.0000   1.0000   1.0000   1.0000   1.0000   0.9942
     0.0000   0.0000   0.0000   0.0000

          k =-0.1250 0.7500-0.3750 (   281 PWs)   bands (ev):

   -66.0238 -31.5316 -31.2910 -31.1201  19.0908  20.3555  20.9176  23.4283
    24.9988  28.1667  34.2698  38.0149

     occupation numbers 
     1.0000   1.0000   1.0000   1.0000   1.0000   1.0000   1.0000   0.0000
     0.0000   0.0000   0.0000   0.0000

          k =-0.2500 0.2500 0.2500 (   294 PWs)   bands (ev):

   -66.0931 -31.4205 -31.0811 -31.0811  17.0602  20.2860  20.2860  24.1423
    24.1423  24.5215  41.2807  41.2807

     occupation numbers 
     1.0000   1.0000   1.0000   1.0000   1.0000   1.0000   1.0000   0.0000
     0.0000   0.0000   0.0000   0.0000

          k =-0.2500 0.7500-0.2500 (   285 PWs)   bands (ev):

   -66.0119 -31.4572 -31.4572 -31.1303  19.9372  19.9372  20.2008  24.3179
    24.3179  31.9965  31.9965  34.4320

     occupation numbers 
     1.0000   1.0000   1.0000   1.0000   1.0000   1.0000   1.0000   0.0000
     0.0000   0.0000   0.0000   0.0000

          k = 0.6250-0.6250 0.2500 (   286 PWs)   bands (ev):

   -66.0576 -31.5150 -31.1871 -31.0756  18.6680  19.8995  20.4490  24.2673
    24.5106  27.0239  36.1985  39.5026

     occupation numbers 
     1.0000   1.0000   1.0000   1.0000   1.0000   1.0000   1.0000   0.0000
     0.0000   0.0000   0.0000   0.0000

          k = 0.5000-0.5000 0.2500 (   282 PWs)   bands (ev):

   -66.0428 -31.5321 -31.2375 -31.0770  18.8909  19.8573  21.3398  24.3997
    24.5604  28.6884  33.1150  38.9814

     occupation numbers 
     1.0000   1.0000   1.0000   1.0000   1.0000   1.0000   1.0000   0.0000
     0.0000   0.0000   0.0000   0.0000

          k = 0.5000-0.6250 0.3750 (   292 PWs)   bands (ev):

   -66.0409 -31.4780 -31.3017 -31.1468  19.3899  19.8743  20.3270  24.3050
    24.4452  29.7964  34.1530  35.4214

     occupation numbers 
     1.0000   1.0000   1.0000   1.0000   1.0000   1.0000   1.0000   0.0000
     0.0000   0.0000   0.0000   0.0000

          k = 0.0000 0.0000 0.5000 (   293 PWs)   bands (ev):

   -66.0575 -31.3518 -31.2184 -31.2184  17.8442  21.1366  21.9352  21.9352
    23.1041  25.2868  42.6186  42.6186

     occupation numbers 
     1.0000   1.0000   1.0000   1.0000   1.0000   1.0000   1.0000   1.0000
     0.2156   0.0000   0.0000   0.0000

          k = 0.0000-0.1250 0.6250 (   283 PWs)   bands (ev):

   -66.0168 -31.4636 -31.2757 -31.2377  18.9234  20.1650  22.0243  22.8015
    24.7259  26.9832  37.1391  39.9125

     occupation numbers 
     1.0000   1.0000   1.0000   1.0000   1.0000   1.0000   1.0000   0.9908
     0.0000   0.0000   0.0000   0.0000

          k = 0.0000 0.7500-0.2500 (   276 PWs)   bands (ev):

   -65.9998 -31.5254 -31.2902 -31.2240  19.1945  19.8759  22.0873  22.9887
    25.7934  29.6700  33.1046  38.8054

     occupation numbers 
     1.0000   1.0000   1.0000   1.0000   1.0000   1.0000   1.0000   0.6601
     0.0000   0.0000   0.0000   0.0000

          k =-0.1250 0.8750-0.2500 (   280 PWs)   bands (ev):

   -65.9900 -31.4796 -31.3858 -31.2528  19.2617  19.4429  22.0141  24.0552
    25.0853  30.2205  34.9876  35.4790

     occupation numbers 
     1.0000   1.0000   1.0000   1.0000   1.0000   1.0000   1.0000   0.0000
     0.0000   0.0000   0.0000   0.0000

          k = 0.5000-0.5000 0.5000 (   276 PWs)   bands (ev):

   -66.0380 -31.2826 -31.2826 -31.2826  20.0899  20.0899  20.0899  24.8101
    24.8101  33.7687  33.7687  33.7687

     occupation numbers 
     1.0000   1.0000   1.0000   1.0000   1.0000   1.0000   1.0000   0.0000
     0.0000   0.0000   0.0000   0.0000

          k = 0.0000 0.0000 0.7500 (   265 PWs)   bands (ev):

   -65.9808 -31.3990 -31.3372 -31.3372  19.0154  19.4709  24.0723  24.0723
    24.7146  29.3645  36.8670  36.8670

     occupation numbers 
     1.0000   1.0000   1.0000   1.0000   1.0000   1.0000   0.0000   0.0000
     0.0000   0.0000   0.0000   0.0000

          k = 0.0000 0.8750-0.1250 (   274 PWs)   bands (ev):

   -65.9660 -31.4676 -31.3832 -31.3648  18.7838  18.9196  24.1130  24.5025
    25.4084  32.3683  33.4297  35.3341

     occupation numbers 
     1.0000   1.0000   1.0000   1.0000   1.0000   1.0000   0.0000   0.0000
     0.0000   0.0000   0.0000   0.0000

          k = 0.0000 0.0000-1.0000 (   266 PWs)   bands (ev):

   -65.9519 -31.4168 -31.4168 -31.4168  18.6269  18.6269  25.3816  25.3816
    25.3816  33.7840  33.7840  33.7840

     occupation numbers 
     1.0000   1.0000   1.0000   1.0000   1.0000   1.0000   0.0000   0.0000
     0.0000   0.0000   0.0000   0.0000

     the Fermi energy is    23.0284 ev

!    total energy              =    -236.18912270 Ry
     estimated scf accuracy    <          1.1E-12 Ry
     smearing contrib. (-TS)   =      -0.00052964 Ry
     internal energy E=F+TS    =    -236.18859306 Ry

     The total energy is F=E-TS. E is the sum of the following terms:
     one-electron contribution =     -77.90879927 Ry
     hartree contribution      =      49.09578419 Ry
     xc contribution           =     -24.95071734 Ry
     ewald contribution        =    -182.42486064 Ry

     total magnetization       =     1.62 Bohr mag/cell
     absolute magnetization    =     1.69 Bohr mag/cell

     convergence has been achieved in  10 iterations

     Writing output data file ./iron.save/

     init_run     :      0.10s CPU      0.10s WALL (       1 calls)
     electrons    :      2.65s CPU      2.73s WALL (       1 calls)

     Called by init_run:
     wfcinit      :      0.08s CPU      0.08s WALL (       1 calls)
     wfcinit:wfcr :      0.06s CPU      0.07s WALL (      58 calls)
     potinit      :      0.01s CPU      0.01s WALL (       1 calls)
     hinit0       :      0.02s CPU      0.02s WALL (       1 calls)

     Called by electrons:
     c_bands      :      2.29s CPU      2.35s WALL (      10 calls)
     sum_band     :      0.32s CPU      0.32s WALL (      10 calls)
     v_of_rho     :      0.04s CPU      0.05s WALL (      11 calls)
     v_h          :      0.00s CPU      0.00s WALL (      11 calls)
     v_xc         :      0.04s CPU      0.05s WALL (      11 calls)
     mix_rho      :      0.01s CPU      0.01s WALL (      10 calls)

     Called by c_bands:
     init_us_2    :      0.07s CPU      0.07s WALL (    1218 calls)
     cegterg      :      2.18s CPU      2.23s WALL (     580 calls)

     Called by sum_band:
     sum_band:wei :      0.00s CPU      0.00s WALL (      10 calls)
     sum_band:loo :      0.31s CPU      0.32s WALL (      10 calls)
     sum_band:buf :      0.00s CPU      0.00s WALL (     580 calls)
     sum_band:ini :      0.03s CPU      0.03s WALL (     580 calls)

     Called by *egterg:
     cdiaghg      :      0.27s CPU      0.28s WALL (    2531 calls)
     cegterg:over :      0.05s CPU      0.05s WALL (    1951 calls)
     cegterg:upda :      0.04s CPU      0.04s WALL (    1951 calls)
     cegterg:last :      0.04s CPU      0.05s WALL (    1554 calls)
     h_psi        :      1.78s CPU      1.83s WALL (    2589 calls)
     g_psi        :      0.01s CPU      0.02s WALL (    1951 calls)

     Called by h_psi:
     h_psi:calbec :      0.04s CPU      0.04s WALL (    2589 calls)
     vloc_psi     :      1.69s CPU      1.74s WALL (    2589 calls)
     add_vuspsi   :      0.03s CPU      0.03s WALL (    2589 calls)

     General routines
     calbec       :      0.03s CPU      0.03s WALL (    2589 calls)
     fft          :      0.01s CPU      0.01s WALL (     206 calls)
     ffts         :      0.00s CPU      0.00s WALL (      20 calls)
     fftw         :      1.72s CPU      1.76s WALL (   51658 calls)

     Parallel routines

     PWSCF        :      2.79s CPU      2.94s WALL


   This run was terminated on:  11:38:35  29Jun2022            

=------------------------------------------------------------------------------=
   JOB DONE.
=------------------------------------------------------------------------------=
