
     Program PWSCF v.7.2 starts on 18Sep2024 at  1:55:41 

     This program is part of the open-source Quantum ESPRESSO suite
     for quantum simulation of materials; please cite
         "P. Giannozzi et al., J. Phys.:Condens. Matter 21 395502 (2009);
         "P. Giannozzi et al., J. Phys.:Condens. Matter 29 465901 (2017);
         "P. Giannozzi et al., J. Chem. Phys. 152 154105 (2020);
          URL http://www.quantum-espresso.org", 
     in publications or presentations arising from this work. More details at
     http://www.quantum-espresso.org/quote

     Parallel version (MPI & OpenMP), running on      48 processor cores
     Number of MPI processes:                48
     Threads/MPI process:                     1

     MPI processes distributed on     1 nodes
     942540 MiB available memory on the printing compute node when the environment starts
 
     Reading input from SiSupercell8x8x8-100.scf.in
Warning: card &CELL ignored
Warning: card / ignored

     Current dimensions of program PWSCF are:
     Max number of different atomic species (ntypx) = 10
     Max number of k-points (npk) =  40000
     Max angular momentum in pseudopotentials (lmaxx) =  4
     Found identity + (  0.1250  0.0000  0.0000) symmetry
     This is a supercell, fractional translations are disabled
     Message from routine setup:
     using ibrav=0 with symmetry is DISCOURAGED, use correct ibrav instead
 
     R & G space division:  proc/nbgrp/npool/nimage =      48
     wavefunctions fft division:  Y-proc x Z-proc =      48      1
     wavefunctions fft division:  task group distribution
                                  #TG    x Z-proc =      48      1
     Subspace diagonalization in iterative solution of the eigenvalue problem:
     a serial algorithm will be used

 
     Parallelization info
     --------------------
     sticks:   dense  smooth     PW     G-vecs:    dense   smooth      PW
     Min         428     428     79                45849    45849    4673
     Max         506     506    134                49354    49354    6804
     Sum       22921   22921   5731              2293397  2293397  286953
 
     Using Pencil Decomposition
 


     bravais-lattice index     =            0
     lattice parameter (alat)  =      57.6999  a.u.
     unit-cell volume          =  135834.6240 (a.u.)^3
     number of atoms/cell      =         1024
     number of atomic types    =            1
     number of electrons       =      4096.00
     number of Kohn-Sham states=         2048
     kinetic-energy cutoff     =      25.0000  Ry
     charge density cutoff     =     100.0000  Ry
     scf convergence threshold =      1.0E-08
     mixing beta               =       0.7000
     number of iterations used =            8  plain     mixing
     Exchange-correlation= PBE
                           (   1   4   3   4   0   0   0)

     celldm(1)=  57.699913  celldm(2)=   0.000000  celldm(3)=   0.000000
     celldm(4)=   0.000000  celldm(5)=   0.000000  celldm(6)=   0.000000

     crystal axes: (cart. coord. in units of alat)
               a(1) = (  -0.707107   0.000000   0.707107 )  
               a(2) = (   0.000000   0.707107   0.707107 )  
               a(3) = (  -0.707107   0.707107   0.000000 )  

     reciprocal axes: (cart. coord. in units 2 pi/alat)
               b(1) = ( -0.707107 -0.707107  0.707107 )  
               b(2) = (  0.707107  0.707107  0.707107 )  
               b(3) = ( -0.707107  0.707107 -0.707107 )  


     PseudoPot. # 1 for Si read from file:
     ./Si_ONCV_PBE-1.2.upf
     MD5 check sum: 7f029a58b69e3aa87b46a36c608bf45e
     Pseudo is Norm-conserving, Zval =  4.0
     Generated using ONCVPSP code by D. R. Hamann
     Using radial grid of  602 points,  4 beta functions with: 
                l(1) =   0
                l(2) =   0
                l(3) =   1
                l(4) =   1

     atomic species   valence    mass     pseudopotential
        Si             4.00    28.08500     Si( 1.00)

     12 Sym. Ops., with inversion, found


                                    s                        frac. trans.

      isym =  1     identity                                     

 cryst.   s( 1) = (     1          0          0      )
                  (     0          1          0      )
                  (     0          0          1      )

 cart.    s( 1) = (  1.0000000  0.0000000  0.0000000 )
                  (  0.0000000  1.0000000  0.0000000 )
                  (  0.0000000  0.0000000  1.0000000 )


      isym =  2     180 deg rotation - cart. axis [1,1,0]        

 cryst.   s( 2) = (     0         -1          0      )
                  (    -1          0          0      )
                  (     0          0         -1      )

 cart.    s( 2) = (  0.0000000  1.0000000  0.0000000 )
                  (  1.0000000  0.0000000  0.0000000 )
                  (  0.0000000  0.0000000 -1.0000000 )


      isym =  3     180 deg rotation - cart. axis [1,0,1]        

 cryst.   s( 3) = (    -1          0          0      )
                  (     0          0         -1      )
                  (     0         -1          0      )

 cart.    s( 3) = (  0.0000000  0.0000000  1.0000000 )
                  (  0.0000000 -1.0000000  0.0000000 )
                  (  1.0000000  0.0000000  0.0000000 )


      isym =  4     180 deg rotation - cart. axis [0,1,-1]       

 cryst.   s( 4) = (     0          0         -1      )
                  (     0         -1          0      )
                  (    -1          0          0      )

 cart.    s( 4) = ( -1.0000000  0.0000000  0.0000000 )
                  (  0.0000000  0.0000000 -1.0000000 )
                  (  0.0000000 -1.0000000  0.0000000 )


      isym =  5     120 deg rotation - cart. axis [-1,1,1]       

 cryst.   s( 5) = (     0          1          0      )
                  (     0          0          1      )
                  (     1          0          0      )

 cart.    s( 5) = (  0.0000000 -1.0000000  0.0000000 )
                  (  0.0000000  0.0000000  1.0000000 )
                  ( -1.0000000  0.0000000  0.0000000 )


      isym =  6     120 deg rotation - cart. axis [1,-1,-1]      

 cryst.   s( 6) = (     0          0          1      )
                  (     1          0          0      )
                  (     0          1          0      )

 cart.    s( 6) = (  0.0000000  0.0000000 -1.0000000 )
                  ( -1.0000000  0.0000000  0.0000000 )
                  (  0.0000000  1.0000000  0.0000000 )


      isym =  7     inversion                                    

 cryst.   s( 7) = (    -1          0          0      )
                  (     0         -1          0      )
                  (     0          0         -1      )

 cart.    s( 7) = ( -1.0000000  0.0000000  0.0000000 )
                  (  0.0000000 -1.0000000  0.0000000 )
                  (  0.0000000  0.0000000 -1.0000000 )


      isym =  8     inv. 180 deg rotation - cart. axis [1,1,0]   

 cryst.   s( 8) = (     0          1          0      )
                  (     1          0          0      )
                  (     0          0          1      )

 cart.    s( 8) = (  0.0000000 -1.0000000  0.0000000 )
                  ( -1.0000000  0.0000000  0.0000000 )
                  (  0.0000000  0.0000000  1.0000000 )


      isym =  9     inv. 180 deg rotation - cart. axis [1,0,1]   

 cryst.   s( 9) = (     1          0          0      )
                  (     0          0          1      )
                  (     0          1          0      )

 cart.    s( 9) = (  0.0000000  0.0000000 -1.0000000 )
                  (  0.0000000  1.0000000  0.0000000 )
                  ( -1.0000000  0.0000000  0.0000000 )


      isym = 10     inv. 180 deg rotation - cart. axis [0,1,-1]  

 cryst.   s(10) = (     0          0          1      )
                  (     0          1          0      )
                  (     1          0          0      )

 cart.    s(10) = (  1.0000000  0.0000000  0.0000000 )
                  (  0.0000000  0.0000000  1.0000000 )
                  (  0.0000000  1.0000000  0.0000000 )


      isym = 11     inv. 120 deg rotation - cart. axis [-1,1,1]  

 cryst.   s(11) = (     0         -1          0      )
                  (     0          0         -1      )
                  (    -1          0          0      )

 cart.    s(11) = (  0.0000000  1.0000000  0.0000000 )
                  (  0.0000000  0.0000000 -1.0000000 )
                  (  1.0000000  0.0000000  0.0000000 )


      isym = 12     inv. 120 deg rotation - cart. axis [1,-1,-1] 

 cryst.   s(12) = (     0          0         -1      )
                  (    -1          0          0      )
                  (     0         -1          0      )

 cart.    s(12) = (  0.0000000  0.0000000  1.0000000 )
                  (  1.0000000  0.0000000  0.0000000 )
                  (  0.0000000 -1.0000000  0.0000000 )


   Cartesian axes

     site n.     atom                  positions (alat units)
         1           Si  tau(   1) = (  -0.1546796   0.1546796   0.1546796  )
         2           Si  tau(   2) = (  -0.2430680   0.1546796   0.2430680  )
         3           Si  tau(   3) = (  -0.3314563   0.1546796   0.3314563  )
         4           Si  tau(   4) = (  -0.4198447   0.1546796   0.4198447  )
         5           Si  tau(   5) = (  -0.5082330   0.1546796   0.5082330  )
         6           Si  tau(   6) = (  -0.5966213   0.1546796   0.5966213  )
         7           Si  tau(   7) = (  -0.6850097   0.1546796   0.6850097  )
         8           Si  tau(   8) = (  -0.7733980   0.1546796   0.7733980  )
         9           Si  tau(   9) = (  -0.1546796   0.2430680   0.2430680  )
        10           Si  tau(  10) = (  -0.2430680   0.2430680   0.3314563  )
        11           Si  tau(  11) = (  -0.3314563   0.2430680   0.4198447  )
        12           Si  tau(  12) = (  -0.4198447   0.2430680   0.5082330  )
        13           Si  tau(  13) = (  -0.5082330   0.2430680   0.5966213  )
        14           Si  tau(  14) = (  -0.5966213   0.2430680   0.6850097  )
        15           Si  tau(  15) = (  -0.6850097   0.2430680   0.7733980  )
        16           Si  tau(  16) = (  -0.7733980   0.2430680   0.8617864  )
        17           Si  tau(  17) = (  -0.1546796   0.3314563   0.3314563  )
        18           Si  tau(  18) = (  -0.2430680   0.3314563   0.4198447  )
        19           Si  tau(  19) = (  -0.3314563   0.3314563   0.5082330  )
        20           Si  tau(  20) = (  -0.4198447   0.3314563   0.5966213  )
        21           Si  tau(  21) = (  -0.5082330   0.3314563   0.6850097  )
        22           Si  tau(  22) = (  -0.5966213   0.3314563   0.7733980  )
        23           Si  tau(  23) = (  -0.6850097   0.3314563   0.8617864  )
        24           Si  tau(  24) = (  -0.7733980   0.3314563   0.9501747  )
        25           Si  tau(  25) = (  -0.1546796   0.4198447   0.4198447  )
        26           Si  tau(  26) = (  -0.2430680   0.4198447   0.5082330  )
        27           Si  tau(  27) = (  -0.3314563   0.4198447   0.5966213  )
        28           Si  tau(  28) = (  -0.4198447   0.4198447   0.6850097  )
        29           Si  tau(  29) = (  -0.5082330   0.4198447   0.7733980  )
        30           Si  tau(  30) = (  -0.5966213   0.4198447   0.8617864  )
        31           Si  tau(  31) = (  -0.6850097   0.4198447   0.9501747  )
        32           Si  tau(  32) = (  -0.7733980   0.4198447   1.0385631  )
        33           Si  tau(  33) = (  -0.1546796   0.5082330   0.5082330  )
        34           Si  tau(  34) = (  -0.2430680   0.5082330   0.5966213  )
        35           Si  tau(  35) = (  -0.3314563   0.5082330   0.6850097  )
        36           Si  tau(  36) = (  -0.4198447   0.5082330   0.7733980  )
        37           Si  tau(  37) = (  -0.5082330   0.5082330   0.8617864  )
        38           Si  tau(  38) = (  -0.5966213   0.5082330   0.9501747  )
        39           Si  tau(  39) = (  -0.6850097   0.5082330   1.0385631  )
        40           Si  tau(  40) = (  -0.7733980   0.5082330   1.1269514  )
        41           Si  tau(  41) = (  -0.1546796   0.5966213   0.5966213  )
        42           Si  tau(  42) = (  -0.2430680   0.5966213   0.6850097  )
        43           Si  tau(  43) = (  -0.3314563   0.5966213   0.7733980  )
        44           Si  tau(  44) = (  -0.4198447   0.5966213   0.8617864  )
        45           Si  tau(  45) = (  -0.5082330   0.5966213   0.9501747  )
        46           Si  tau(  46) = (  -0.5966213   0.5966213   1.0385631  )
        47           Si  tau(  47) = (  -0.6850097   0.5966213   1.1269514  )
        48           Si  tau(  48) = (  -0.7733980   0.5966213   1.2153398  )
        49           Si  tau(  49) = (  -0.1546796   0.6850097   0.6850097  )
        50           Si  tau(  50) = (  -0.2430680   0.6850097   0.7733980  )
        51           Si  tau(  51) = (  -0.3314563   0.6850097   0.8617864  )
        52           Si  tau(  52) = (  -0.4198447   0.6850097   0.9501747  )
        53           Si  tau(  53) = (  -0.5082330   0.6850097   1.0385631  )
        54           Si  tau(  54) = (  -0.5966213   0.6850097   1.1269514  )
        55           Si  tau(  55) = (  -0.6850097   0.6850097   1.2153398  )
        56           Si  tau(  56) = (  -0.7733980   0.6850097   1.3037281  )
        57           Si  tau(  57) = (  -0.1546796   0.7733980   0.7733980  )
        58           Si  tau(  58) = (  -0.2430680   0.7733980   0.8617864  )
        59           Si  tau(  59) = (  -0.3314563   0.7733980   0.9501747  )
        60           Si  tau(  60) = (  -0.4198447   0.7733980   1.0385631  )
        61           Si  tau(  61) = (  -0.5082330   0.7733980   1.1269514  )
        62           Si  tau(  62) = (  -0.5966213   0.7733980   1.2153398  )
        63           Si  tau(  63) = (  -0.6850097   0.7733980   1.3037281  )
        64           Si  tau(  64) = (  -0.7733980   0.7733980   1.3921165  )
        65           Si  tau(  65) = (  -0.2430680   0.2430680   0.1546796  )
        66           Si  tau(  66) = (  -0.3314563   0.2430680   0.2430680  )
        67           Si  tau(  67) = (  -0.4198447   0.2430680   0.3314563  )
        68           Si  tau(  68) = (  -0.5082330   0.2430680   0.4198447  )
        69           Si  tau(  69) = (  -0.5966213   0.2430680   0.5082330  )
        70           Si  tau(  70) = (  -0.6850097   0.2430680   0.5966213  )
        71           Si  tau(  71) = (  -0.7733980   0.2430680   0.6850097  )
        72           Si  tau(  72) = (  -0.8617864   0.2430680   0.7733980  )
        73           Si  tau(  73) = (  -0.2430680   0.3314563   0.2430680  )
        74           Si  tau(  74) = (  -0.3314563   0.3314563   0.3314563  )
        75           Si  tau(  75) = (  -0.4198447   0.3314563   0.4198447  )
        76           Si  tau(  76) = (  -0.5082330   0.3314563   0.5082330  )
        77           Si  tau(  77) = (  -0.5966213   0.3314563   0.5966213  )
        78           Si  tau(  78) = (  -0.6850097   0.3314563   0.6850097  )
        79           Si  tau(  79) = (  -0.7733980   0.3314563   0.7733980  )
        80           Si  tau(  80) = (  -0.8617864   0.3314563   0.8617864  )
        81           Si  tau(  81) = (  -0.2430680   0.4198447   0.3314563  )
        82           Si  tau(  82) = (  -0.3314563   0.4198447   0.4198447  )
        83           Si  tau(  83) = (  -0.4198447   0.4198447   0.5082330  )
        84           Si  tau(  84) = (  -0.5082330   0.4198447   0.5966213  )
        85           Si  tau(  85) = (  -0.5966213   0.4198447   0.6850097  )
        86           Si  tau(  86) = (  -0.6850097   0.4198447   0.7733980  )
        87           Si  tau(  87) = (  -0.7733980   0.4198447   0.8617864  )
        88           Si  tau(  88) = (  -0.8617864   0.4198447   0.9501747  )
        89           Si  tau(  89) = (  -0.2430680   0.5082330   0.4198447  )
        90           Si  tau(  90) = (  -0.3314563   0.5082330   0.5082330  )
        91           Si  tau(  91) = (  -0.4198447   0.5082330   0.5966213  )
        92           Si  tau(  92) = (  -0.5082330   0.5082330   0.6850097  )
        93           Si  tau(  93) = (  -0.5966213   0.5082330   0.7733980  )
        94           Si  tau(  94) = (  -0.6850097   0.5082330   0.8617864  )
        95           Si  tau(  95) = (  -0.7733980   0.5082330   0.9501747  )
        96           Si  tau(  96) = (  -0.8617864   0.5082330   1.0385631  )
        97           Si  tau(  97) = (  -0.2430680   0.5966213   0.5082330  )
        98           Si  tau(  98) = (  -0.3314563   0.5966213   0.5966213  )
        99           Si  tau(  99) = (  -0.4198447   0.5966213   0.6850097  )
       100           Si  tau( 100) = (  -0.5082330   0.5966213   0.7733980  )
       101           Si  tau( 101) = (  -0.5966213   0.5966213   0.8617864  )
       102           Si  tau( 102) = (  -0.6850097   0.5966213   0.9501747  )
       103           Si  tau( 103) = (  -0.7733980   0.5966213   1.0385631  )
       104           Si  tau( 104) = (  -0.8617864   0.5966213   1.1269514  )
       105           Si  tau( 105) = (  -0.2430680   0.6850097   0.5966213  )
       106           Si  tau( 106) = (  -0.3314563   0.6850097   0.6850097  )
       107           Si  tau( 107) = (  -0.4198447   0.6850097   0.7733980  )
       108           Si  tau( 108) = (  -0.5082330   0.6850097   0.8617864  )
       109           Si  tau( 109) = (  -0.5966213   0.6850097   0.9501747  )
       110           Si  tau( 110) = (  -0.6850097   0.6850097   1.0385631  )
       111           Si  tau( 111) = (  -0.7733980   0.6850097   1.1269514  )
       112           Si  tau( 112) = (  -0.8617864   0.6850097   1.2153398  )
       113           Si  tau( 113) = (  -0.2430680   0.7733980   0.6850097  )
       114           Si  tau( 114) = (  -0.3314563   0.7733980   0.7733980  )
       115           Si  tau( 115) = (  -0.4198447   0.7733980   0.8617864  )
       116           Si  tau( 116) = (  -0.5082330   0.7733980   0.9501747  )
       117           Si  tau( 117) = (  -0.5966213   0.7733980   1.0385631  )
       118           Si  tau( 118) = (  -0.6850097   0.7733980   1.1269514  )
       119           Si  tau( 119) = (  -0.7733980   0.7733980   1.2153398  )
       120           Si  tau( 120) = (  -0.8617864   0.7733980   1.3037281  )
       121           Si  tau( 121) = (  -0.2430680   0.8617864   0.7733980  )
       122           Si  tau( 122) = (  -0.3314563   0.8617864   0.8617864  )
       123           Si  tau( 123) = (  -0.4198447   0.8617864   0.9501747  )
       124           Si  tau( 124) = (  -0.5082330   0.8617864   1.0385631  )
       125           Si  tau( 125) = (  -0.5966213   0.8617864   1.1269514  )
       126           Si  tau( 126) = (  -0.6850097   0.8617864   1.2153398  )
       127           Si  tau( 127) = (  -0.7733980   0.8617864   1.3037281  )
       128           Si  tau( 128) = (  -0.8617864   0.8617864   1.3921165  )
       129           Si  tau( 129) = (  -0.3314563   0.3314563   0.1546796  )
       130           Si  tau( 130) = (  -0.4198447   0.3314563   0.2430680  )
       131           Si  tau( 131) = (  -0.5082330   0.3314563   0.3314563  )
       132           Si  tau( 132) = (  -0.5966213   0.3314563   0.4198447  )
       133           Si  tau( 133) = (  -0.6850097   0.3314563   0.5082330  )
       134           Si  tau( 134) = (  -0.7733980   0.3314563   0.5966213  )
       135           Si  tau( 135) = (  -0.8617864   0.3314563   0.6850097  )
       136           Si  tau( 136) = (  -0.9501747   0.3314563   0.7733980  )
       137           Si  tau( 137) = (  -0.3314563   0.4198447   0.2430680  )
       138           Si  tau( 138) = (  -0.4198447   0.4198447   0.3314563  )
       139           Si  tau( 139) = (  -0.5082330   0.4198447   0.4198447  )
       140           Si  tau( 140) = (  -0.5966213   0.4198447   0.5082330  )
       141           Si  tau( 141) = (  -0.6850097   0.4198447   0.5966213  )
       142           Si  tau( 142) = (  -0.7733980   0.4198447   0.6850097  )
       143           Si  tau( 143) = (  -0.8617864   0.4198447   0.7733980  )
       144           Si  tau( 144) = (  -0.9501747   0.4198447   0.8617864  )
       145           Si  tau( 145) = (  -0.3314563   0.5082330   0.3314563  )
       146           Si  tau( 146) = (  -0.4198447   0.5082330   0.4198447  )
       147           Si  tau( 147) = (  -0.5082330   0.5082330   0.5082330  )
       148           Si  tau( 148) = (  -0.5966213   0.5082330   0.5966213  )
       149           Si  tau( 149) = (  -0.6850097   0.5082330   0.6850097  )
       150           Si  tau( 150) = (  -0.7733980   0.5082330   0.7733980  )
       151           Si  tau( 151) = (  -0.8617864   0.5082330   0.8617864  )
       152           Si  tau( 152) = (  -0.9501747   0.5082330   0.9501747  )
       153           Si  tau( 153) = (  -0.3314563   0.5966213   0.4198447  )
       154           Si  tau( 154) = (  -0.4198447   0.5966213   0.5082330  )
       155           Si  tau( 155) = (  -0.5082330   0.5966213   0.5966213  )
       156           Si  tau( 156) = (  -0.5966213   0.5966213   0.6850097  )
       157           Si  tau( 157) = (  -0.6850097   0.5966213   0.7733980  )
       158           Si  tau( 158) = (  -0.7733980   0.5966213   0.8617864  )
       159           Si  tau( 159) = (  -0.8617864   0.5966213   0.9501747  )
       160           Si  tau( 160) = (  -0.9501747   0.5966213   1.0385631  )
       161           Si  tau( 161) = (  -0.3314563   0.6850097   0.5082330  )
       162           Si  tau( 162) = (  -0.4198447   0.6850097   0.5966213  )
       163           Si  tau( 163) = (  -0.5082330   0.6850097   0.6850097  )
       164           Si  tau( 164) = (  -0.5966213   0.6850097   0.7733980  )
       165           Si  tau( 165) = (  -0.6850097   0.6850097   0.8617864  )
       166           Si  tau( 166) = (  -0.7733980   0.6850097   0.9501747  )
       167           Si  tau( 167) = (  -0.8617864   0.6850097   1.0385631  )
       168           Si  tau( 168) = (  -0.9501747   0.6850097   1.1269514  )
       169           Si  tau( 169) = (  -0.3314563   0.7733980   0.5966213  )
       170           Si  tau( 170) = (  -0.4198447   0.7733980   0.6850097  )
       171           Si  tau( 171) = (  -0.5082330   0.7733980   0.7733980  )
       172           Si  tau( 172) = (  -0.5966213   0.7733980   0.8617864  )
       173           Si  tau( 173) = (  -0.6850097   0.7733980   0.9501747  )
       174           Si  tau( 174) = (  -0.7733980   0.7733980   1.0385631  )
       175           Si  tau( 175) = (  -0.8617864   0.7733980   1.1269514  )
       176           Si  tau( 176) = (  -0.9501747   0.7733980   1.2153398  )
       177           Si  tau( 177) = (  -0.3314563   0.8617864   0.6850097  )
       178           Si  tau( 178) = (  -0.4198447   0.8617864   0.7733980  )
       179           Si  tau( 179) = (  -0.5082330   0.8617864   0.8617864  )
       180           Si  tau( 180) = (  -0.5966213   0.8617864   0.9501747  )
       181           Si  tau( 181) = (  -0.6850097   0.8617864   1.0385631  )
       182           Si  tau( 182) = (  -0.7733980   0.8617864   1.1269514  )
       183           Si  tau( 183) = (  -0.8617864   0.8617864   1.2153398  )
       184           Si  tau( 184) = (  -0.9501747   0.8617864   1.3037281  )
       185           Si  tau( 185) = (  -0.3314563   0.9501747   0.7733980  )
       186           Si  tau( 186) = (  -0.4198447   0.9501747   0.8617864  )
       187           Si  tau( 187) = (  -0.5082330   0.9501747   0.9501747  )
       188           Si  tau( 188) = (  -0.5966213   0.9501747   1.0385631  )
       189           Si  tau( 189) = (  -0.6850097   0.9501747   1.1269514  )
       190           Si  tau( 190) = (  -0.7733980   0.9501747   1.2153398  )
       191           Si  tau( 191) = (  -0.8617864   0.9501747   1.3037281  )
       192           Si  tau( 192) = (  -0.9501747   0.9501747   1.3921165  )
       193           Si  tau( 193) = (  -0.4198447   0.4198447   0.1546796  )
       194           Si  tau( 194) = (  -0.5082330   0.4198447   0.2430680  )
       195           Si  tau( 195) = (  -0.5966213   0.4198447   0.3314563  )
       196           Si  tau( 196) = (  -0.6850097   0.4198447   0.4198447  )
       197           Si  tau( 197) = (  -0.7733980   0.4198447   0.5082330  )
       198           Si  tau( 198) = (  -0.8617864   0.4198447   0.5966213  )
       199           Si  tau( 199) = (  -0.9501747   0.4198447   0.6850097  )
       200           Si  tau( 200) = (  -1.0385631   0.4198447   0.7733980  )
       201           Si  tau( 201) = (  -0.4198447   0.5082330   0.2430680  )
       202           Si  tau( 202) = (  -0.5082330   0.5082330   0.3314563  )
       203           Si  tau( 203) = (  -0.5966213   0.5082330   0.4198447  )
       204           Si  tau( 204) = (  -0.6850097   0.5082330   0.5082330  )
       205           Si  tau( 205) = (  -0.7733980   0.5082330   0.5966213  )
       206           Si  tau( 206) = (  -0.8617864   0.5082330   0.6850097  )
       207           Si  tau( 207) = (  -0.9501747   0.5082330   0.7733980  )
       208           Si  tau( 208) = (  -1.0385631   0.5082330   0.8617864  )
       209           Si  tau( 209) = (  -0.4198447   0.5966213   0.3314563  )
       210           Si  tau( 210) = (  -0.5082330   0.5966213   0.4198447  )
       211           Si  tau( 211) = (  -0.5966213   0.5966213   0.5082330  )
       212           Si  tau( 212) = (  -0.6850097   0.5966213   0.5966213  )
       213           Si  tau( 213) = (  -0.7733980   0.5966213   0.6850097  )
       214           Si  tau( 214) = (  -0.8617864   0.5966213   0.7733980  )
       215           Si  tau( 215) = (  -0.9501747   0.5966213   0.8617864  )
       216           Si  tau( 216) = (  -1.0385631   0.5966213   0.9501747  )
       217           Si  tau( 217) = (  -0.4198447   0.6850097   0.4198447  )
       218           Si  tau( 218) = (  -0.5082330   0.6850097   0.5082330  )
       219           Si  tau( 219) = (  -0.5966213   0.6850097   0.5966213  )
       220           Si  tau( 220) = (  -0.6850097   0.6850097   0.6850097  )
       221           Si  tau( 221) = (  -0.7733980   0.6850097   0.7733980  )
       222           Si  tau( 222) = (  -0.8617864   0.6850097   0.8617864  )
       223           Si  tau( 223) = (  -0.9501747   0.6850097   0.9501747  )
       224           Si  tau( 224) = (  -1.0385631   0.6850097   1.0385631  )
       225           Si  tau( 225) = (  -0.4198447   0.7733980   0.5082330  )
       226           Si  tau( 226) = (  -0.5082330   0.7733980   0.5966213  )
       227           Si  tau( 227) = (  -0.5966213   0.7733980   0.6850097  )
       228           Si  tau( 228) = (  -0.6850097   0.7733980   0.7733980  )
       229           Si  tau( 229) = (  -0.7733980   0.7733980   0.8617864  )
       230           Si  tau( 230) = (  -0.8617864   0.7733980   0.9501747  )
       231           Si  tau( 231) = (  -0.9501747   0.7733980   1.0385631  )
       232           Si  tau( 232) = (  -1.0385631   0.7733980   1.1269514  )
       233           Si  tau( 233) = (  -0.4198447   0.8617864   0.5966213  )
       234           Si  tau( 234) = (  -0.5082330   0.8617864   0.6850097  )
       235           Si  tau( 235) = (  -0.5966213   0.8617864   0.7733980  )
       236           Si  tau( 236) = (  -0.6850097   0.8617864   0.8617864  )
       237           Si  tau( 237) = (  -0.7733980   0.8617864   0.9501747  )
       238           Si  tau( 238) = (  -0.8617864   0.8617864   1.0385631  )
       239           Si  tau( 239) = (  -0.9501747   0.8617864   1.1269514  )
       240           Si  tau( 240) = (  -1.0385631   0.8617864   1.2153398  )
       241           Si  tau( 241) = (  -0.4198447   0.9501747   0.6850097  )
       242           Si  tau( 242) = (  -0.5082330   0.9501747   0.7733980  )
       243           Si  tau( 243) = (  -0.5966213   0.9501747   0.8617864  )
       244           Si  tau( 244) = (  -0.6850097   0.9501747   0.9501747  )
       245           Si  tau( 245) = (  -0.7733980   0.9501747   1.0385631  )
       246           Si  tau( 246) = (  -0.8617864   0.9501747   1.1269514  )
       247           Si  tau( 247) = (  -0.9501747   0.9501747   1.2153398  )
       248           Si  tau( 248) = (  -1.0385631   0.9501747   1.3037281  )
       249           Si  tau( 249) = (  -0.4198447   1.0385631   0.7733980  )
       250           Si  tau( 250) = (  -0.5082330   1.0385631   0.8617864  )
       251           Si  tau( 251) = (  -0.5966213   1.0385631   0.9501747  )
       252           Si  tau( 252) = (  -0.6850097   1.0385631   1.0385631  )
       253           Si  tau( 253) = (  -0.7733980   1.0385631   1.1269514  )
       254           Si  tau( 254) = (  -0.8617864   1.0385631   1.2153398  )
       255           Si  tau( 255) = (  -0.9501747   1.0385631   1.3037281  )
       256           Si  tau( 256) = (  -1.0385631   1.0385631   1.3921165  )
       257           Si  tau( 257) = (  -0.5082330   0.5082330   0.1546796  )
       258           Si  tau( 258) = (  -0.5966213   0.5082330   0.2430680  )
       259           Si  tau( 259) = (  -0.6850097   0.5082330   0.3314563  )
       260           Si  tau( 260) = (  -0.7733980   0.5082330   0.4198447  )
       261           Si  tau( 261) = (  -0.8617864   0.5082330   0.5082330  )
       262           Si  tau( 262) = (  -0.9501747   0.5082330   0.5966213  )
       263           Si  tau( 263) = (  -1.0385631   0.5082330   0.6850097  )
       264           Si  tau( 264) = (  -1.1269514   0.5082330   0.7733980  )
       265           Si  tau( 265) = (  -0.5082330   0.5966213   0.2430680  )
       266           Si  tau( 266) = (  -0.5966213   0.5966213   0.3314563  )
       267           Si  tau( 267) = (  -0.6850097   0.5966213   0.4198447  )
       268           Si  tau( 268) = (  -0.7733980   0.5966213   0.5082330  )
       269           Si  tau( 269) = (  -0.8617864   0.5966213   0.5966213  )
       270           Si  tau( 270) = (  -0.9501747   0.5966213   0.6850097  )
       271           Si  tau( 271) = (  -1.0385631   0.5966213   0.7733980  )
       272           Si  tau( 272) = (  -1.1269514   0.5966213   0.8617864  )
       273           Si  tau( 273) = (  -0.5082330   0.6850097   0.3314563  )
       274           Si  tau( 274) = (  -0.5966213   0.6850097   0.4198447  )
       275           Si  tau( 275) = (  -0.6850097   0.6850097   0.5082330  )
       276           Si  tau( 276) = (  -0.7733980   0.6850097   0.5966213  )
       277           Si  tau( 277) = (  -0.8617864   0.6850097   0.6850097  )
       278           Si  tau( 278) = (  -0.9501747   0.6850097   0.7733980  )
       279           Si  tau( 279) = (  -1.0385631   0.6850097   0.8617864  )
       280           Si  tau( 280) = (  -1.1269514   0.6850097   0.9501747  )
       281           Si  tau( 281) = (  -0.5082330   0.7733980   0.4198447  )
       282           Si  tau( 282) = (  -0.5966213   0.7733980   0.5082330  )
       283           Si  tau( 283) = (  -0.6850097   0.7733980   0.5966213  )
       284           Si  tau( 284) = (  -0.7733980   0.7733980   0.6850097  )
       285           Si  tau( 285) = (  -0.8617864   0.7733980   0.7733980  )
       286           Si  tau( 286) = (  -0.9501747   0.7733980   0.8617864  )
       287           Si  tau( 287) = (  -1.0385631   0.7733980   0.9501747  )
       288           Si  tau( 288) = (  -1.1269514   0.7733980   1.0385631  )
       289           Si  tau( 289) = (  -0.5082330   0.8617864   0.5082330  )
       290           Si  tau( 290) = (  -0.5966213   0.8617864   0.5966213  )
       291           Si  tau( 291) = (  -0.6850097   0.8617864   0.6850097  )
       292           Si  tau( 292) = (  -0.7733980   0.8617864   0.7733980  )
       293           Si  tau( 293) = (  -0.8617864   0.8617864   0.8617864  )
       294           Si  tau( 294) = (  -0.9501747   0.8617864   0.9501747  )
       295           Si  tau( 295) = (  -1.0385631   0.8617864   1.0385631  )
       296           Si  tau( 296) = (  -1.1269514   0.8617864   1.1269514  )
       297           Si  tau( 297) = (  -0.5082330   0.9501747   0.5966213  )
       298           Si  tau( 298) = (  -0.5966213   0.9501747   0.6850097  )
       299           Si  tau( 299) = (  -0.6850097   0.9501747   0.7733980  )
       300           Si  tau( 300) = (  -0.7733980   0.9501747   0.8617864  )
       301           Si  tau( 301) = (  -0.8617864   0.9501747   0.9501747  )
       302           Si  tau( 302) = (  -0.9501747   0.9501747   1.0385631  )
       303           Si  tau( 303) = (  -1.0385631   0.9501747   1.1269514  )
       304           Si  tau( 304) = (  -1.1269514   0.9501747   1.2153398  )
       305           Si  tau( 305) = (  -0.5082330   1.0385631   0.6850097  )
       306           Si  tau( 306) = (  -0.5966213   1.0385631   0.7733980  )
       307           Si  tau( 307) = (  -0.6850097   1.0385631   0.8617864  )
       308           Si  tau( 308) = (  -0.7733980   1.0385631   0.9501747  )
       309           Si  tau( 309) = (  -0.8617864   1.0385631   1.0385631  )
       310           Si  tau( 310) = (  -0.9501747   1.0385631   1.1269514  )
       311           Si  tau( 311) = (  -1.0385631   1.0385631   1.2153398  )
       312           Si  tau( 312) = (  -1.1269514   1.0385631   1.3037281  )
       313           Si  tau( 313) = (  -0.5082330   1.1269514   0.7733980  )
       314           Si  tau( 314) = (  -0.5966213   1.1269514   0.8617864  )
       315           Si  tau( 315) = (  -0.6850097   1.1269514   0.9501747  )
       316           Si  tau( 316) = (  -0.7733980   1.1269514   1.0385631  )
       317           Si  tau( 317) = (  -0.8617864   1.1269514   1.1269514  )
       318           Si  tau( 318) = (  -0.9501747   1.1269514   1.2153398  )
       319           Si  tau( 319) = (  -1.0385631   1.1269514   1.3037281  )
       320           Si  tau( 320) = (  -1.1269514   1.1269514   1.3921165  )
       321           Si  tau( 321) = (  -0.5966213   0.5966213   0.1546796  )
       322           Si  tau( 322) = (  -0.6850097   0.5966213   0.2430680  )
       323           Si  tau( 323) = (  -0.7733980   0.5966213   0.3314563  )
       324           Si  tau( 324) = (  -0.8617864   0.5966213   0.4198447  )
       325           Si  tau( 325) = (  -0.9501747   0.5966213   0.5082330  )
       326           Si  tau( 326) = (  -1.0385631   0.5966213   0.5966213  )
       327           Si  tau( 327) = (  -1.1269514   0.5966213   0.6850097  )
       328           Si  tau( 328) = (  -1.2153398   0.5966213   0.7733980  )
       329           Si  tau( 329) = (  -0.5966213   0.6850097   0.2430680  )
       330           Si  tau( 330) = (  -0.6850097   0.6850097   0.3314563  )
       331           Si  tau( 331) = (  -0.7733980   0.6850097   0.4198447  )
       332           Si  tau( 332) = (  -0.8617864   0.6850097   0.5082330  )
       333           Si  tau( 333) = (  -0.9501747   0.6850097   0.5966213  )
       334           Si  tau( 334) = (  -1.0385631   0.6850097   0.6850097  )
       335           Si  tau( 335) = (  -1.1269514   0.6850097   0.7733980  )
       336           Si  tau( 336) = (  -1.2153398   0.6850097   0.8617864  )
       337           Si  tau( 337) = (  -0.5966213   0.7733980   0.3314563  )
       338           Si  tau( 338) = (  -0.6850097   0.7733980   0.4198447  )
       339           Si  tau( 339) = (  -0.7733980   0.7733980   0.5082330  )
       340           Si  tau( 340) = (  -0.8617864   0.7733980   0.5966213  )
       341           Si  tau( 341) = (  -0.9501747   0.7733980   0.6850097  )
       342           Si  tau( 342) = (  -1.0385631   0.7733980   0.7733980  )
       343           Si  tau( 343) = (  -1.1269514   0.7733980   0.8617864  )
       344           Si  tau( 344) = (  -1.2153398   0.7733980   0.9501747  )
       345           Si  tau( 345) = (  -0.5966213   0.8617864   0.4198447  )
       346           Si  tau( 346) = (  -0.6850097   0.8617864   0.5082330  )
       347           Si  tau( 347) = (  -0.7733980   0.8617864   0.5966213  )
       348           Si  tau( 348) = (  -0.8617864   0.8617864   0.6850097  )
       349           Si  tau( 349) = (  -0.9501747   0.8617864   0.7733980  )
       350           Si  tau( 350) = (  -1.0385631   0.8617864   0.8617864  )
       351           Si  tau( 351) = (  -1.1269514   0.8617864   0.9501747  )
       352           Si  tau( 352) = (  -1.2153398   0.8617864   1.0385631  )
       353           Si  tau( 353) = (  -0.5966213   0.9501747   0.5082330  )
       354           Si  tau( 354) = (  -0.6850097   0.9501747   0.5966213  )
       355           Si  tau( 355) = (  -0.7733980   0.9501747   0.6850097  )
       356           Si  tau( 356) = (  -0.8617864   0.9501747   0.7733980  )
       357           Si  tau( 357) = (  -0.9501747   0.9501747   0.8617864  )
       358           Si  tau( 358) = (  -1.0385631   0.9501747   0.9501747  )
       359           Si  tau( 359) = (  -1.1269514   0.9501747   1.0385631  )
       360           Si  tau( 360) = (  -1.2153398   0.9501747   1.1269514  )
       361           Si  tau( 361) = (  -0.5966213   1.0385631   0.5966213  )
       362           Si  tau( 362) = (  -0.6850097   1.0385631   0.6850097  )
       363           Si  tau( 363) = (  -0.7733980   1.0385631   0.7733980  )
       364           Si  tau( 364) = (  -0.8617864   1.0385631   0.8617864  )
       365           Si  tau( 365) = (  -0.9501747   1.0385631   0.9501747  )
       366           Si  tau( 366) = (  -1.0385631   1.0385631   1.0385631  )
       367           Si  tau( 367) = (  -1.1269514   1.0385631   1.1269514  )
       368           Si  tau( 368) = (  -1.2153398   1.0385631   1.2153398  )
       369           Si  tau( 369) = (  -0.5966213   1.1269514   0.6850097  )
       370           Si  tau( 370) = (  -0.6850097   1.1269514   0.7733980  )
       371           Si  tau( 371) = (  -0.7733980   1.1269514   0.8617864  )
       372           Si  tau( 372) = (  -0.8617864   1.1269514   0.9501747  )
       373           Si  tau( 373) = (  -0.9501747   1.1269514   1.0385631  )
       374           Si  tau( 374) = (  -1.0385631   1.1269514   1.1269514  )
       375           Si  tau( 375) = (  -1.1269514   1.1269514   1.2153398  )
       376           Si  tau( 376) = (  -1.2153398   1.1269514   1.3037281  )
       377           Si  tau( 377) = (  -0.5966213   1.2153398   0.7733980  )
       378           Si  tau( 378) = (  -0.6850097   1.2153398   0.8617864  )
       379           Si  tau( 379) = (  -0.7733980   1.2153398   0.9501747  )
       380           Si  tau( 380) = (  -0.8617864   1.2153398   1.0385631  )
       381           Si  tau( 381) = (  -0.9501747   1.2153398   1.1269514  )
       382           Si  tau( 382) = (  -1.0385631   1.2153398   1.2153398  )
       383           Si  tau( 383) = (  -1.1269514   1.2153398   1.3037281  )
       384           Si  tau( 384) = (  -1.2153398   1.2153398   1.3921165  )
       385           Si  tau( 385) = (  -0.6850097   0.6850097   0.1546796  )
       386           Si  tau( 386) = (  -0.7733980   0.6850097   0.2430680  )
       387           Si  tau( 387) = (  -0.8617864   0.6850097   0.3314563  )
       388           Si  tau( 388) = (  -0.9501747   0.6850097   0.4198447  )
       389           Si  tau( 389) = (  -1.0385631   0.6850097   0.5082330  )
       390           Si  tau( 390) = (  -1.1269514   0.6850097   0.5966213  )
       391           Si  tau( 391) = (  -1.2153398   0.6850097   0.6850097  )
       392           Si  tau( 392) = (  -1.3037281   0.6850097   0.7733980  )
       393           Si  tau( 393) = (  -0.6850097   0.7733980   0.2430680  )
       394           Si  tau( 394) = (  -0.7733980   0.7733980   0.3314563  )
       395           Si  tau( 395) = (  -0.8617864   0.7733980   0.4198447  )
       396           Si  tau( 396) = (  -0.9501747   0.7733980   0.5082330  )
       397           Si  tau( 397) = (  -1.0385631   0.7733980   0.5966213  )
       398           Si  tau( 398) = (  -1.1269514   0.7733980   0.6850097  )
       399           Si  tau( 399) = (  -1.2153398   0.7733980   0.7733980  )
       400           Si  tau( 400) = (  -1.3037281   0.7733980   0.8617864  )
       401           Si  tau( 401) = (  -0.6850097   0.8617864   0.3314563  )
       402           Si  tau( 402) = (  -0.7733980   0.8617864   0.4198447  )
       403           Si  tau( 403) = (  -0.8617864   0.8617864   0.5082330  )
       404           Si  tau( 404) = (  -0.9501747   0.8617864   0.5966213  )
       405           Si  tau( 405) = (  -1.0385631   0.8617864   0.6850097  )
       406           Si  tau( 406) = (  -1.1269514   0.8617864   0.7733980  )
       407           Si  tau( 407) = (  -1.2153398   0.8617864   0.8617864  )
       408           Si  tau( 408) = (  -1.3037281   0.8617864   0.9501747  )
       409           Si  tau( 409) = (  -0.6850097   0.9501747   0.4198447  )
       410           Si  tau( 410) = (  -0.7733980   0.9501747   0.5082330  )
       411           Si  tau( 411) = (  -0.8617864   0.9501747   0.5966213  )
       412           Si  tau( 412) = (  -0.9501747   0.9501747   0.6850097  )
       413           Si  tau( 413) = (  -1.0385631   0.9501747   0.7733980  )
       414           Si  tau( 414) = (  -1.1269514   0.9501747   0.8617864  )
       415           Si  tau( 415) = (  -1.2153398   0.9501747   0.9501747  )
       416           Si  tau( 416) = (  -1.3037281   0.9501747   1.0385631  )
       417           Si  tau( 417) = (  -0.6850097   1.0385631   0.5082330  )
       418           Si  tau( 418) = (  -0.7733980   1.0385631   0.5966213  )
       419           Si  tau( 419) = (  -0.8617864   1.0385631   0.6850097  )
       420           Si  tau( 420) = (  -0.9501747   1.0385631   0.7733980  )
       421           Si  tau( 421) = (  -1.0385631   1.0385631   0.8617864  )
       422           Si  tau( 422) = (  -1.1269514   1.0385631   0.9501747  )
       423           Si  tau( 423) = (  -1.2153398   1.0385631   1.0385631  )
       424           Si  tau( 424) = (  -1.3037281   1.0385631   1.1269514  )
       425           Si  tau( 425) = (  -0.6850097   1.1269514   0.5966213  )
       426           Si  tau( 426) = (  -0.7733980   1.1269514   0.6850097  )
       427           Si  tau( 427) = (  -0.8617864   1.1269514   0.7733980  )
       428           Si  tau( 428) = (  -0.9501747   1.1269514   0.8617864  )
       429           Si  tau( 429) = (  -1.0385631   1.1269514   0.9501747  )
       430           Si  tau( 430) = (  -1.1269514   1.1269514   1.0385631  )
       431           Si  tau( 431) = (  -1.2153398   1.1269514   1.1269514  )
       432           Si  tau( 432) = (  -1.3037281   1.1269514   1.2153398  )
       433           Si  tau( 433) = (  -0.6850097   1.2153398   0.6850097  )
       434           Si  tau( 434) = (  -0.7733980   1.2153398   0.7733980  )
       435           Si  tau( 435) = (  -0.8617864   1.2153398   0.8617864  )
       436           Si  tau( 436) = (  -0.9501747   1.2153398   0.9501747  )
       437           Si  tau( 437) = (  -1.0385631   1.2153398   1.0385631  )
       438           Si  tau( 438) = (  -1.1269514   1.2153398   1.1269514  )
       439           Si  tau( 439) = (  -1.2153398   1.2153398   1.2153398  )
       440           Si  tau( 440) = (  -1.3037281   1.2153398   1.3037281  )
       441           Si  tau( 441) = (  -0.6850097   1.3037281   0.7733980  )
       442           Si  tau( 442) = (  -0.7733980   1.3037281   0.8617864  )
       443           Si  tau( 443) = (  -0.8617864   1.3037281   0.9501747  )
       444           Si  tau( 444) = (  -0.9501747   1.3037281   1.0385631  )
       445           Si  tau( 445) = (  -1.0385631   1.3037281   1.1269514  )
       446           Si  tau( 446) = (  -1.1269514   1.3037281   1.2153398  )
       447           Si  tau( 447) = (  -1.2153398   1.3037281   1.3037281  )
       448           Si  tau( 448) = (  -1.3037281   1.3037281   1.3921165  )
       449           Si  tau( 449) = (  -0.7733980   0.7733980   0.1546796  )
       450           Si  tau( 450) = (  -0.8617864   0.7733980   0.2430680  )
       451           Si  tau( 451) = (  -0.9501747   0.7733980   0.3314563  )
       452           Si  tau( 452) = (  -1.0385631   0.7733980   0.4198447  )
       453           Si  tau( 453) = (  -1.1269514   0.7733980   0.5082330  )
       454           Si  tau( 454) = (  -1.2153398   0.7733980   0.5966213  )
       455           Si  tau( 455) = (  -1.3037281   0.7733980   0.6850097  )
       456           Si  tau( 456) = (  -1.3921165   0.7733980   0.7733980  )
       457           Si  tau( 457) = (  -0.7733980   0.8617864   0.2430680  )
       458           Si  tau( 458) = (  -0.8617864   0.8617864   0.3314563  )
       459           Si  tau( 459) = (  -0.9501747   0.8617864   0.4198447  )
       460           Si  tau( 460) = (  -1.0385631   0.8617864   0.5082330  )
       461           Si  tau( 461) = (  -1.1269514   0.8617864   0.5966213  )
       462           Si  tau( 462) = (  -1.2153398   0.8617864   0.6850097  )
       463           Si  tau( 463) = (  -1.3037281   0.8617864   0.7733980  )
       464           Si  tau( 464) = (  -1.3921165   0.8617864   0.8617864  )
       465           Si  tau( 465) = (  -0.7733980   0.9501747   0.3314563  )
       466           Si  tau( 466) = (  -0.8617864   0.9501747   0.4198447  )
       467           Si  tau( 467) = (  -0.9501747   0.9501747   0.5082330  )
       468           Si  tau( 468) = (  -1.0385631   0.9501747   0.5966213  )
       469           Si  tau( 469) = (  -1.1269514   0.9501747   0.6850097  )
       470           Si  tau( 470) = (  -1.2153398   0.9501747   0.7733980  )
       471           Si  tau( 471) = (  -1.3037281   0.9501747   0.8617864  )
       472           Si  tau( 472) = (  -1.3921165   0.9501747   0.9501747  )
       473           Si  tau( 473) = (  -0.7733980   1.0385631   0.4198447  )
       474           Si  tau( 474) = (  -0.8617864   1.0385631   0.5082330  )
       475           Si  tau( 475) = (  -0.9501747   1.0385631   0.5966213  )
       476           Si  tau( 476) = (  -1.0385631   1.0385631   0.6850097  )
       477           Si  tau( 477) = (  -1.1269514   1.0385631   0.7733980  )
       478           Si  tau( 478) = (  -1.2153398   1.0385631   0.8617864  )
       479           Si  tau( 479) = (  -1.3037281   1.0385631   0.9501747  )
       480           Si  tau( 480) = (  -1.3921165   1.0385631   1.0385631  )
       481           Si  tau( 481) = (  -0.7733980   1.1269514   0.5082330  )
       482           Si  tau( 482) = (  -0.8617864   1.1269514   0.5966213  )
       483           Si  tau( 483) = (  -0.9501747   1.1269514   0.6850097  )
       484           Si  tau( 484) = (  -1.0385631   1.1269514   0.7733980  )
       485           Si  tau( 485) = (  -1.1269514   1.1269514   0.8617864  )
       486           Si  tau( 486) = (  -1.2153398   1.1269514   0.9501747  )
       487           Si  tau( 487) = (  -1.3037281   1.1269514   1.0385631  )
       488           Si  tau( 488) = (  -1.3921165   1.1269514   1.1269514  )
       489           Si  tau( 489) = (  -0.7733980   1.2153398   0.5966213  )
       490           Si  tau( 490) = (  -0.8617864   1.2153398   0.6850097  )
       491           Si  tau( 491) = (  -0.9501747   1.2153398   0.7733980  )
       492           Si  tau( 492) = (  -1.0385631   1.2153398   0.8617864  )
       493           Si  tau( 493) = (  -1.1269514   1.2153398   0.9501747  )
       494           Si  tau( 494) = (  -1.2153398   1.2153398   1.0385631  )
       495           Si  tau( 495) = (  -1.3037281   1.2153398   1.1269514  )
       496           Si  tau( 496) = (  -1.3921165   1.2153398   1.2153398  )
       497           Si  tau( 497) = (  -0.7733980   1.3037281   0.6850097  )
       498           Si  tau( 498) = (  -0.8617864   1.3037281   0.7733980  )
       499           Si  tau( 499) = (  -0.9501747   1.3037281   0.8617864  )
       500           Si  tau( 500) = (  -1.0385631   1.3037281   0.9501747  )
       501           Si  tau( 501) = (  -1.1269514   1.3037281   1.0385631  )
       502           Si  tau( 502) = (  -1.2153398   1.3037281   1.1269514  )
       503           Si  tau( 503) = (  -1.3037281   1.3037281   1.2153398  )
       504           Si  tau( 504) = (  -1.3921165   1.3037281   1.3037281  )
       505           Si  tau( 505) = (  -0.7733980   1.3921165   0.7733980  )
       506           Si  tau( 506) = (  -0.8617864   1.3921165   0.8617864  )
       507           Si  tau( 507) = (  -0.9501747   1.3921165   0.9501747  )
       508           Si  tau( 508) = (  -1.0385631   1.3921165   1.0385631  )
       509           Si  tau( 509) = (  -1.1269514   1.3921165   1.1269514  )
       510           Si  tau( 510) = (  -1.2153398   1.3921165   1.2153398  )
       511           Si  tau( 511) = (  -1.3037281   1.3921165   1.3037281  )
       512           Si  tau( 512) = (  -1.3921165   1.3921165   1.3921165  )
       513           Si  tau( 513) = (  -0.0220971   0.0220971   0.0220971  )
       514           Si  tau( 514) = (  -0.1104854   0.0220971   0.1104854  )
       515           Si  tau( 515) = (  -0.1988738   0.0220971   0.1988738  )
       516           Si  tau( 516) = (  -0.2872621   0.0220971   0.2872621  )
       517           Si  tau( 517) = (  -0.3756505   0.0220971   0.3756505  )
       518           Si  tau( 518) = (  -0.4640388   0.0220971   0.4640388  )
       519           Si  tau( 519) = (  -0.5524272   0.0220971   0.5524272  )
       520           Si  tau( 520) = (  -0.6408155   0.0220971   0.6408155  )
       521           Si  tau( 521) = (  -0.0220971   0.1104854   0.1104854  )
       522           Si  tau( 522) = (  -0.1104854   0.1104854   0.1988738  )
       523           Si  tau( 523) = (  -0.1988738   0.1104854   0.2872621  )
       524           Si  tau( 524) = (  -0.2872621   0.1104854   0.3756505  )
       525           Si  tau( 525) = (  -0.3756505   0.1104854   0.4640388  )
       526           Si  tau( 526) = (  -0.4640388   0.1104854   0.5524272  )
       527           Si  tau( 527) = (  -0.5524272   0.1104854   0.6408155  )
       528           Si  tau( 528) = (  -0.6408155   0.1104854   0.7292039  )
       529           Si  tau( 529) = (  -0.0220971   0.1988738   0.1988738  )
       530           Si  tau( 530) = (  -0.1104854   0.1988738   0.2872621  )
       531           Si  tau( 531) = (  -0.1988738   0.1988738   0.3756505  )
       532           Si  tau( 532) = (  -0.2872621   0.1988738   0.4640388  )
       533           Si  tau( 533) = (  -0.3756505   0.1988738   0.5524272  )
       534           Si  tau( 534) = (  -0.4640388   0.1988738   0.6408155  )
       535           Si  tau( 535) = (  -0.5524272   0.1988738   0.7292039  )
       536           Si  tau( 536) = (  -0.6408155   0.1988738   0.8175922  )
       537           Si  tau( 537) = (  -0.0220971   0.2872621   0.2872621  )
       538           Si  tau( 538) = (  -0.1104854   0.2872621   0.3756505  )
       539           Si  tau( 539) = (  -0.1988738   0.2872621   0.4640388  )
       540           Si  tau( 540) = (  -0.2872621   0.2872621   0.5524272  )
       541           Si  tau( 541) = (  -0.3756505   0.2872621   0.6408155  )
       542           Si  tau( 542) = (  -0.4640388   0.2872621   0.7292039  )
       543           Si  tau( 543) = (  -0.5524272   0.2872621   0.8175922  )
       544           Si  tau( 544) = (  -0.6408155   0.2872621   0.9059806  )
       545           Si  tau( 545) = (  -0.0220971   0.3756505   0.3756505  )
       546           Si  tau( 546) = (  -0.1104854   0.3756505   0.4640388  )
       547           Si  tau( 547) = (  -0.1988738   0.3756505   0.5524272  )
       548           Si  tau( 548) = (  -0.2872621   0.3756505   0.6408155  )
       549           Si  tau( 549) = (  -0.3756505   0.3756505   0.7292039  )
       550           Si  tau( 550) = (  -0.4640388   0.3756505   0.8175922  )
       551           Si  tau( 551) = (  -0.5524272   0.3756505   0.9059806  )
       552           Si  tau( 552) = (  -0.6408155   0.3756505   0.9943689  )
       553           Si  tau( 553) = (  -0.0220971   0.4640388   0.4640388  )
       554           Si  tau( 554) = (  -0.1104854   0.4640388   0.5524272  )
       555           Si  tau( 555) = (  -0.1988738   0.4640388   0.6408155  )
       556           Si  tau( 556) = (  -0.2872621   0.4640388   0.7292039  )
       557           Si  tau( 557) = (  -0.3756505   0.4640388   0.8175922  )
       558           Si  tau( 558) = (  -0.4640388   0.4640388   0.9059806  )
       559           Si  tau( 559) = (  -0.5524272   0.4640388   0.9943689  )
       560           Si  tau( 560) = (  -0.6408155   0.4640388   1.0827573  )
       561           Si  tau( 561) = (  -0.0220971   0.5524272   0.5524272  )
       562           Si  tau( 562) = (  -0.1104854   0.5524272   0.6408155  )
       563           Si  tau( 563) = (  -0.1988738   0.5524272   0.7292039  )
       564           Si  tau( 564) = (  -0.2872621   0.5524272   0.8175922  )
       565           Si  tau( 565) = (  -0.3756505   0.5524272   0.9059806  )
       566           Si  tau( 566) = (  -0.4640388   0.5524272   0.9943689  )
       567           Si  tau( 567) = (  -0.5524272   0.5524272   1.0827573  )
       568           Si  tau( 568) = (  -0.6408155   0.5524272   1.1711456  )
       569           Si  tau( 569) = (  -0.0220971   0.6408155   0.6408155  )
       570           Si  tau( 570) = (  -0.1104854   0.6408155   0.7292039  )
       571           Si  tau( 571) = (  -0.1988738   0.6408155   0.8175922  )
       572           Si  tau( 572) = (  -0.2872621   0.6408155   0.9059806  )
       573           Si  tau( 573) = (  -0.3756505   0.6408155   0.9943689  )
       574           Si  tau( 574) = (  -0.4640388   0.6408155   1.0827573  )
       575           Si  tau( 575) = (  -0.5524272   0.6408155   1.1711456  )
       576           Si  tau( 576) = (  -0.6408155   0.6408155   1.2595340  )
       577           Si  tau( 577) = (  -0.1104854   0.1104854   0.0220971  )
       578           Si  tau( 578) = (  -0.1988738   0.1104854   0.1104854  )
       579           Si  tau( 579) = (  -0.2872621   0.1104854   0.1988738  )
       580           Si  tau( 580) = (  -0.3756505   0.1104854   0.2872621  )
       581           Si  tau( 581) = (  -0.4640388   0.1104854   0.3756505  )
       582           Si  tau( 582) = (  -0.5524272   0.1104854   0.4640388  )
       583           Si  tau( 583) = (  -0.6408155   0.1104854   0.5524272  )
       584           Si  tau( 584) = (  -0.7292039   0.1104854   0.6408155  )
       585           Si  tau( 585) = (  -0.1104854   0.1988738   0.1104854  )
       586           Si  tau( 586) = (  -0.1988738   0.1988738   0.1988738  )
       587           Si  tau( 587) = (  -0.2872621   0.1988738   0.2872621  )
       588           Si  tau( 588) = (  -0.3756505   0.1988738   0.3756505  )
       589           Si  tau( 589) = (  -0.4640388   0.1988738   0.4640388  )
       590           Si  tau( 590) = (  -0.5524272   0.1988738   0.5524272  )
       591           Si  tau( 591) = (  -0.6408155   0.1988738   0.6408155  )
       592           Si  tau( 592) = (  -0.7292039   0.1988738   0.7292039  )
       593           Si  tau( 593) = (  -0.1104854   0.2872621   0.1988738  )
       594           Si  tau( 594) = (  -0.1988738   0.2872621   0.2872621  )
       595           Si  tau( 595) = (  -0.2872621   0.2872621   0.3756505  )
       596           Si  tau( 596) = (  -0.3756505   0.2872621   0.4640388  )
       597           Si  tau( 597) = (  -0.4640388   0.2872621   0.5524272  )
       598           Si  tau( 598) = (  -0.5524272   0.2872621   0.6408155  )
       599           Si  tau( 599) = (  -0.6408155   0.2872621   0.7292039  )
       600           Si  tau( 600) = (  -0.7292039   0.2872621   0.8175922  )
       601           Si  tau( 601) = (  -0.1104854   0.3756505   0.2872621  )
       602           Si  tau( 602) = (  -0.1988738   0.3756505   0.3756505  )
       603           Si  tau( 603) = (  -0.2872621   0.3756505   0.4640388  )
       604           Si  tau( 604) = (  -0.3756505   0.3756505   0.5524272  )
       605           Si  tau( 605) = (  -0.4640388   0.3756505   0.6408155  )
       606           Si  tau( 606) = (  -0.5524272   0.3756505   0.7292039  )
       607           Si  tau( 607) = (  -0.6408155   0.3756505   0.8175922  )
       608           Si  tau( 608) = (  -0.7292039   0.3756505   0.9059806  )
       609           Si  tau( 609) = (  -0.1104854   0.4640388   0.3756505  )
       610           Si  tau( 610) = (  -0.1988738   0.4640388   0.4640388  )
       611           Si  tau( 611) = (  -0.2872621   0.4640388   0.5524272  )
       612           Si  tau( 612) = (  -0.3756505   0.4640388   0.6408155  )
       613           Si  tau( 613) = (  -0.4640388   0.4640388   0.7292039  )
       614           Si  tau( 614) = (  -0.5524272   0.4640388   0.8175922  )
       615           Si  tau( 615) = (  -0.6408155   0.4640388   0.9059806  )
       616           Si  tau( 616) = (  -0.7292039   0.4640388   0.9943689  )
       617           Si  tau( 617) = (  -0.1104854   0.5524272   0.4640388  )
       618           Si  tau( 618) = (  -0.1988738   0.5524272   0.5524272  )
       619           Si  tau( 619) = (  -0.2872621   0.5524272   0.6408155  )
       620           Si  tau( 620) = (  -0.3756505   0.5524272   0.7292039  )
       621           Si  tau( 621) = (  -0.4640388   0.5524272   0.8175922  )
       622           Si  tau( 622) = (  -0.5524272   0.5524272   0.9059806  )
       623           Si  tau( 623) = (  -0.6408155   0.5524272   0.9943689  )
       624           Si  tau( 624) = (  -0.7292039   0.5524272   1.0827573  )
       625           Si  tau( 625) = (  -0.1104854   0.6408155   0.5524272  )
       626           Si  tau( 626) = (  -0.1988738   0.6408155   0.6408155  )
       627           Si  tau( 627) = (  -0.2872621   0.6408155   0.7292039  )
       628           Si  tau( 628) = (  -0.3756505   0.6408155   0.8175922  )
       629           Si  tau( 629) = (  -0.4640388   0.6408155   0.9059806  )
       630           Si  tau( 630) = (  -0.5524272   0.6408155   0.9943689  )
       631           Si  tau( 631) = (  -0.6408155   0.6408155   1.0827573  )
       632           Si  tau( 632) = (  -0.7292039   0.6408155   1.1711456  )
       633           Si  tau( 633) = (  -0.1104854   0.7292039   0.6408155  )
       634           Si  tau( 634) = (  -0.1988738   0.7292039   0.7292039  )
       635           Si  tau( 635) = (  -0.2872621   0.7292039   0.8175922  )
       636           Si  tau( 636) = (  -0.3756505   0.7292039   0.9059806  )
       637           Si  tau( 637) = (  -0.4640388   0.7292039   0.9943689  )
       638           Si  tau( 638) = (  -0.5524272   0.7292039   1.0827573  )
       639           Si  tau( 639) = (  -0.6408155   0.7292039   1.1711456  )
       640           Si  tau( 640) = (  -0.7292039   0.7292039   1.2595340  )
       641           Si  tau( 641) = (  -0.1988738   0.1988738   0.0220971  )
       642           Si  tau( 642) = (  -0.2872621   0.1988738   0.1104854  )
       643           Si  tau( 643) = (  -0.3756505   0.1988738   0.1988738  )
       644           Si  tau( 644) = (  -0.4640388   0.1988738   0.2872621  )
       645           Si  tau( 645) = (  -0.5524272   0.1988738   0.3756505  )
       646           Si  tau( 646) = (  -0.6408155   0.1988738   0.4640388  )
       647           Si  tau( 647) = (  -0.7292039   0.1988738   0.5524272  )
       648           Si  tau( 648) = (  -0.8175922   0.1988738   0.6408155  )
       649           Si  tau( 649) = (  -0.1988738   0.2872621   0.1104854  )
       650           Si  tau( 650) = (  -0.2872621   0.2872621   0.1988738  )
       651           Si  tau( 651) = (  -0.3756505   0.2872621   0.2872621  )
       652           Si  tau( 652) = (  -0.4640388   0.2872621   0.3756505  )
       653           Si  tau( 653) = (  -0.5524272   0.2872621   0.4640388  )
       654           Si  tau( 654) = (  -0.6408155   0.2872621   0.5524272  )
       655           Si  tau( 655) = (  -0.7292039   0.2872621   0.6408155  )
       656           Si  tau( 656) = (  -0.8175922   0.2872621   0.7292039  )
       657           Si  tau( 657) = (  -0.1988738   0.3756505   0.1988738  )
       658           Si  tau( 658) = (  -0.2872621   0.3756505   0.2872621  )
       659           Si  tau( 659) = (  -0.3756505   0.3756505   0.3756505  )
       660           Si  tau( 660) = (  -0.4640388   0.3756505   0.4640388  )
       661           Si  tau( 661) = (  -0.5524272   0.3756505   0.5524272  )
       662           Si  tau( 662) = (  -0.6408155   0.3756505   0.6408155  )
       663           Si  tau( 663) = (  -0.7292039   0.3756505   0.7292039  )
       664           Si  tau( 664) = (  -0.8175922   0.3756505   0.8175922  )
       665           Si  tau( 665) = (  -0.1988738   0.4640388   0.2872621  )
       666           Si  tau( 666) = (  -0.2872621   0.4640388   0.3756505  )
       667           Si  tau( 667) = (  -0.3756505   0.4640388   0.4640388  )
       668           Si  tau( 668) = (  -0.4640388   0.4640388   0.5524272  )
       669           Si  tau( 669) = (  -0.5524272   0.4640388   0.6408155  )
       670           Si  tau( 670) = (  -0.6408155   0.4640388   0.7292039  )
       671           Si  tau( 671) = (  -0.7292039   0.4640388   0.8175922  )
       672           Si  tau( 672) = (  -0.8175922   0.4640388   0.9059806  )
       673           Si  tau( 673) = (  -0.1988738   0.5524272   0.3756505  )
       674           Si  tau( 674) = (  -0.2872621   0.5524272   0.4640388  )
       675           Si  tau( 675) = (  -0.3756505   0.5524272   0.5524272  )
       676           Si  tau( 676) = (  -0.4640388   0.5524272   0.6408155  )
       677           Si  tau( 677) = (  -0.5524272   0.5524272   0.7292039  )
       678           Si  tau( 678) = (  -0.6408155   0.5524272   0.8175922  )
       679           Si  tau( 679) = (  -0.7292039   0.5524272   0.9059806  )
       680           Si  tau( 680) = (  -0.8175922   0.5524272   0.9943689  )
       681           Si  tau( 681) = (  -0.1988738   0.6408155   0.4640388  )
       682           Si  tau( 682) = (  -0.2872621   0.6408155   0.5524272  )
       683           Si  tau( 683) = (  -0.3756505   0.6408155   0.6408155  )
       684           Si  tau( 684) = (  -0.4640388   0.6408155   0.7292039  )
       685           Si  tau( 685) = (  -0.5524272   0.6408155   0.8175922  )
       686           Si  tau( 686) = (  -0.6408155   0.6408155   0.9059806  )
       687           Si  tau( 687) = (  -0.7292039   0.6408155   0.9943689  )
       688           Si  tau( 688) = (  -0.8175922   0.6408155   1.0827573  )
       689           Si  tau( 689) = (  -0.1988738   0.7292039   0.5524272  )
       690           Si  tau( 690) = (  -0.2872621   0.7292039   0.6408155  )
       691           Si  tau( 691) = (  -0.3756505   0.7292039   0.7292039  )
       692           Si  tau( 692) = (  -0.4640388   0.7292039   0.8175922  )
       693           Si  tau( 693) = (  -0.5524272   0.7292039   0.9059806  )
       694           Si  tau( 694) = (  -0.6408155   0.7292039   0.9943689  )
       695           Si  tau( 695) = (  -0.7292039   0.7292039   1.0827573  )
       696           Si  tau( 696) = (  -0.8175922   0.7292039   1.1711456  )
       697           Si  tau( 697) = (  -0.1988738   0.8175922   0.6408155  )
       698           Si  tau( 698) = (  -0.2872621   0.8175922   0.7292039  )
       699           Si  tau( 699) = (  -0.3756505   0.8175922   0.8175922  )
       700           Si  tau( 700) = (  -0.4640388   0.8175922   0.9059806  )
       701           Si  tau( 701) = (  -0.5524272   0.8175922   0.9943689  )
       702           Si  tau( 702) = (  -0.6408155   0.8175922   1.0827573  )
       703           Si  tau( 703) = (  -0.7292039   0.8175922   1.1711456  )
       704           Si  tau( 704) = (  -0.8175922   0.8175922   1.2595340  )
       705           Si  tau( 705) = (  -0.2872621   0.2872621   0.0220971  )
       706           Si  tau( 706) = (  -0.3756505   0.2872621   0.1104854  )
       707           Si  tau( 707) = (  -0.4640388   0.2872621   0.1988738  )
       708           Si  tau( 708) = (  -0.5524272   0.2872621   0.2872621  )
       709           Si  tau( 709) = (  -0.6408155   0.2872621   0.3756505  )
       710           Si  tau( 710) = (  -0.7292039   0.2872621   0.4640388  )
       711           Si  tau( 711) = (  -0.8175922   0.2872621   0.5524272  )
       712           Si  tau( 712) = (  -0.9059806   0.2872621   0.6408155  )
       713           Si  tau( 713) = (  -0.2872621   0.3756505   0.1104854  )
       714           Si  tau( 714) = (  -0.3756505   0.3756505   0.1988738  )
       715           Si  tau( 715) = (  -0.4640388   0.3756505   0.2872621  )
       716           Si  tau( 716) = (  -0.5524272   0.3756505   0.3756505  )
       717           Si  tau( 717) = (  -0.6408155   0.3756505   0.4640388  )
       718           Si  tau( 718) = (  -0.7292039   0.3756505   0.5524272  )
       719           Si  tau( 719) = (  -0.8175922   0.3756505   0.6408155  )
       720           Si  tau( 720) = (  -0.9059806   0.3756505   0.7292039  )
       721           Si  tau( 721) = (  -0.2872621   0.4640388   0.1988738  )
       722           Si  tau( 722) = (  -0.3756505   0.4640388   0.2872621  )
       723           Si  tau( 723) = (  -0.4640388   0.4640388   0.3756505  )
       724           Si  tau( 724) = (  -0.5524272   0.4640388   0.4640388  )
       725           Si  tau( 725) = (  -0.6408155   0.4640388   0.5524272  )
       726           Si  tau( 726) = (  -0.7292039   0.4640388   0.6408155  )
       727           Si  tau( 727) = (  -0.8175922   0.4640388   0.7292039  )
       728           Si  tau( 728) = (  -0.9059806   0.4640388   0.8175922  )
       729           Si  tau( 729) = (  -0.2872621   0.5524272   0.2872621  )
       730           Si  tau( 730) = (  -0.3756505   0.5524272   0.3756505  )
       731           Si  tau( 731) = (  -0.4640388   0.5524272   0.4640388  )
       732           Si  tau( 732) = (  -0.5524272   0.5524272   0.5524272  )
       733           Si  tau( 733) = (  -0.6408155   0.5524272   0.6408155  )
       734           Si  tau( 734) = (  -0.7292039   0.5524272   0.7292039  )
       735           Si  tau( 735) = (  -0.8175922   0.5524272   0.8175922  )
       736           Si  tau( 736) = (  -0.9059806   0.5524272   0.9059806  )
       737           Si  tau( 737) = (  -0.2872621   0.6408155   0.3756505  )
       738           Si  tau( 738) = (  -0.3756505   0.6408155   0.4640388  )
       739           Si  tau( 739) = (  -0.4640388   0.6408155   0.5524272  )
       740           Si  tau( 740) = (  -0.5524272   0.6408155   0.6408155  )
       741           Si  tau( 741) = (  -0.6408155   0.6408155   0.7292039  )
       742           Si  tau( 742) = (  -0.7292039   0.6408155   0.8175922  )
       743           Si  tau( 743) = (  -0.8175922   0.6408155   0.9059806  )
       744           Si  tau( 744) = (  -0.9059806   0.6408155   0.9943689  )
       745           Si  tau( 745) = (  -0.2872621   0.7292039   0.4640388  )
       746           Si  tau( 746) = (  -0.3756505   0.7292039   0.5524272  )
       747           Si  tau( 747) = (  -0.4640388   0.7292039   0.6408155  )
       748           Si  tau( 748) = (  -0.5524272   0.7292039   0.7292039  )
       749           Si  tau( 749) = (  -0.6408155   0.7292039   0.8175922  )
       750           Si  tau( 750) = (  -0.7292039   0.7292039   0.9059806  )
       751           Si  tau( 751) = (  -0.8175922   0.7292039   0.9943689  )
       752           Si  tau( 752) = (  -0.9059806   0.7292039   1.0827573  )
       753           Si  tau( 753) = (  -0.2872621   0.8175922   0.5524272  )
       754           Si  tau( 754) = (  -0.3756505   0.8175922   0.6408155  )
       755           Si  tau( 755) = (  -0.4640388   0.8175922   0.7292039  )
       756           Si  tau( 756) = (  -0.5524272   0.8175922   0.8175922  )
       757           Si  tau( 757) = (  -0.6408155   0.8175922   0.9059806  )
       758           Si  tau( 758) = (  -0.7292039   0.8175922   0.9943689  )
       759           Si  tau( 759) = (  -0.8175922   0.8175922   1.0827573  )
       760           Si  tau( 760) = (  -0.9059806   0.8175922   1.1711456  )
       761           Si  tau( 761) = (  -0.2872621   0.9059806   0.6408155  )
       762           Si  tau( 762) = (  -0.3756505   0.9059806   0.7292039  )
       763           Si  tau( 763) = (  -0.4640388   0.9059806   0.8175922  )
       764           Si  tau( 764) = (  -0.5524272   0.9059806   0.9059806  )
       765           Si  tau( 765) = (  -0.6408155   0.9059806   0.9943689  )
       766           Si  tau( 766) = (  -0.7292039   0.9059806   1.0827573  )
       767           Si  tau( 767) = (  -0.8175922   0.9059806   1.1711456  )
       768           Si  tau( 768) = (  -0.9059806   0.9059806   1.2595340  )
       769           Si  tau( 769) = (  -0.3756505   0.3756505   0.0220971  )
       770           Si  tau( 770) = (  -0.4640388   0.3756505   0.1104854  )
       771           Si  tau( 771) = (  -0.5524272   0.3756505   0.1988738  )
       772           Si  tau( 772) = (  -0.6408155   0.3756505   0.2872621  )
       773           Si  tau( 773) = (  -0.7292039   0.3756505   0.3756505  )
       774           Si  tau( 774) = (  -0.8175922   0.3756505   0.4640388  )
       775           Si  tau( 775) = (  -0.9059806   0.3756505   0.5524272  )
       776           Si  tau( 776) = (  -0.9943689   0.3756505   0.6408155  )
       777           Si  tau( 777) = (  -0.3756505   0.4640388   0.1104854  )
       778           Si  tau( 778) = (  -0.4640388   0.4640388   0.1988738  )
       779           Si  tau( 779) = (  -0.5524272   0.4640388   0.2872621  )
       780           Si  tau( 780) = (  -0.6408155   0.4640388   0.3756505  )
       781           Si  tau( 781) = (  -0.7292039   0.4640388   0.4640388  )
       782           Si  tau( 782) = (  -0.8175922   0.4640388   0.5524272  )
       783           Si  tau( 783) = (  -0.9059806   0.4640388   0.6408155  )
       784           Si  tau( 784) = (  -0.9943689   0.4640388   0.7292039  )
       785           Si  tau( 785) = (  -0.3756505   0.5524272   0.1988738  )
       786           Si  tau( 786) = (  -0.4640388   0.5524272   0.2872621  )
       787           Si  tau( 787) = (  -0.5524272   0.5524272   0.3756505  )
       788           Si  tau( 788) = (  -0.6408155   0.5524272   0.4640388  )
       789           Si  tau( 789) = (  -0.7292039   0.5524272   0.5524272  )
       790           Si  tau( 790) = (  -0.8175922   0.5524272   0.6408155  )
       791           Si  tau( 791) = (  -0.9059806   0.5524272   0.7292039  )
       792           Si  tau( 792) = (  -0.9943689   0.5524272   0.8175922  )
       793           Si  tau( 793) = (  -0.3756505   0.6408155   0.2872621  )
       794           Si  tau( 794) = (  -0.4640388   0.6408155   0.3756505  )
       795           Si  tau( 795) = (  -0.5524272   0.6408155   0.4640388  )
       796           Si  tau( 796) = (  -0.6408155   0.6408155   0.5524272  )
       797           Si  tau( 797) = (  -0.7292039   0.6408155   0.6408155  )
       798           Si  tau( 798) = (  -0.8175922   0.6408155   0.7292039  )
       799           Si  tau( 799) = (  -0.9059806   0.6408155   0.8175922  )
       800           Si  tau( 800) = (  -0.9943689   0.6408155   0.9059806  )
       801           Si  tau( 801) = (  -0.3756505   0.7292039   0.3756505  )
       802           Si  tau( 802) = (  -0.4640388   0.7292039   0.4640388  )
       803           Si  tau( 803) = (  -0.5524272   0.7292039   0.5524272  )
       804           Si  tau( 804) = (  -0.6408155   0.7292039   0.6408155  )
       805           Si  tau( 805) = (  -0.7292039   0.7292039   0.7292039  )
       806           Si  tau( 806) = (  -0.8175922   0.7292039   0.8175922  )
       807           Si  tau( 807) = (  -0.9059806   0.7292039   0.9059806  )
       808           Si  tau( 808) = (  -0.9943689   0.7292039   0.9943689  )
       809           Si  tau( 809) = (  -0.3756505   0.8175922   0.4640388  )
       810           Si  tau( 810) = (  -0.4640388   0.8175922   0.5524272  )
       811           Si  tau( 811) = (  -0.5524272   0.8175922   0.6408155  )
       812           Si  tau( 812) = (  -0.6408155   0.8175922   0.7292039  )
       813           Si  tau( 813) = (  -0.7292039   0.8175922   0.8175922  )
       814           Si  tau( 814) = (  -0.8175922   0.8175922   0.9059806  )
       815           Si  tau( 815) = (  -0.9059806   0.8175922   0.9943689  )
       816           Si  tau( 816) = (  -0.9943689   0.8175922   1.0827573  )
       817           Si  tau( 817) = (  -0.3756505   0.9059806   0.5524272  )
       818           Si  tau( 818) = (  -0.4640388   0.9059806   0.6408155  )
       819           Si  tau( 819) = (  -0.5524272   0.9059806   0.7292039  )
       820           Si  tau( 820) = (  -0.6408155   0.9059806   0.8175922  )
       821           Si  tau( 821) = (  -0.7292039   0.9059806   0.9059806  )
       822           Si  tau( 822) = (  -0.8175922   0.9059806   0.9943689  )
       823           Si  tau( 823) = (  -0.9059806   0.9059806   1.0827573  )
       824           Si  tau( 824) = (  -0.9943689   0.9059806   1.1711456  )
       825           Si  tau( 825) = (  -0.3756505   0.9943689   0.6408155  )
       826           Si  tau( 826) = (  -0.4640388   0.9943689   0.7292039  )
       827           Si  tau( 827) = (  -0.5524272   0.9943689   0.8175922  )
       828           Si  tau( 828) = (  -0.6408155   0.9943689   0.9059806  )
       829           Si  tau( 829) = (  -0.7292039   0.9943689   0.9943689  )
       830           Si  tau( 830) = (  -0.8175922   0.9943689   1.0827573  )
       831           Si  tau( 831) = (  -0.9059806   0.9943689   1.1711456  )
       832           Si  tau( 832) = (  -0.9943689   0.9943689   1.2595340  )
       833           Si  tau( 833) = (  -0.4640388   0.4640388   0.0220971  )
       834           Si  tau( 834) = (  -0.5524272   0.4640388   0.1104854  )
       835           Si  tau( 835) = (  -0.6408155   0.4640388   0.1988738  )
       836           Si  tau( 836) = (  -0.7292039   0.4640388   0.2872621  )
       837           Si  tau( 837) = (  -0.8175922   0.4640388   0.3756505  )
       838           Si  tau( 838) = (  -0.9059806   0.4640388   0.4640388  )
       839           Si  tau( 839) = (  -0.9943689   0.4640388   0.5524272  )
       840           Si  tau( 840) = (  -1.0827573   0.4640388   0.6408155  )
       841           Si  tau( 841) = (  -0.4640388   0.5524272   0.1104854  )
       842           Si  tau( 842) = (  -0.5524272   0.5524272   0.1988738  )
       843           Si  tau( 843) = (  -0.6408155   0.5524272   0.2872621  )
       844           Si  tau( 844) = (  -0.7292039   0.5524272   0.3756505  )
       845           Si  tau( 845) = (  -0.8175922   0.5524272   0.4640388  )
       846           Si  tau( 846) = (  -0.9059806   0.5524272   0.5524272  )
       847           Si  tau( 847) = (  -0.9943689   0.5524272   0.6408155  )
       848           Si  tau( 848) = (  -1.0827573   0.5524272   0.7292039  )
       849           Si  tau( 849) = (  -0.4640388   0.6408155   0.1988738  )
       850           Si  tau( 850) = (  -0.5524272   0.6408155   0.2872621  )
       851           Si  tau( 851) = (  -0.6408155   0.6408155   0.3756505  )
       852           Si  tau( 852) = (  -0.7292039   0.6408155   0.4640388  )
       853           Si  tau( 853) = (  -0.8175922   0.6408155   0.5524272  )
       854           Si  tau( 854) = (  -0.9059806   0.6408155   0.6408155  )
       855           Si  tau( 855) = (  -0.9943689   0.6408155   0.7292039  )
       856           Si  tau( 856) = (  -1.0827573   0.6408155   0.8175922  )
       857           Si  tau( 857) = (  -0.4640388   0.7292039   0.2872621  )
       858           Si  tau( 858) = (  -0.5524272   0.7292039   0.3756505  )
       859           Si  tau( 859) = (  -0.6408155   0.7292039   0.4640388  )
       860           Si  tau( 860) = (  -0.7292039   0.7292039   0.5524272  )
       861           Si  tau( 861) = (  -0.8175922   0.7292039   0.6408155  )
       862           Si  tau( 862) = (  -0.9059806   0.7292039   0.7292039  )
       863           Si  tau( 863) = (  -0.9943689   0.7292039   0.8175922  )
       864           Si  tau( 864) = (  -1.0827573   0.7292039   0.9059806  )
       865           Si  tau( 865) = (  -0.4640388   0.8175922   0.3756505  )
       866           Si  tau( 866) = (  -0.5524272   0.8175922   0.4640388  )
       867           Si  tau( 867) = (  -0.6408155   0.8175922   0.5524272  )
       868           Si  tau( 868) = (  -0.7292039   0.8175922   0.6408155  )
       869           Si  tau( 869) = (  -0.8175922   0.8175922   0.7292039  )
       870           Si  tau( 870) = (  -0.9059806   0.8175922   0.8175922  )
       871           Si  tau( 871) = (  -0.9943689   0.8175922   0.9059806  )
       872           Si  tau( 872) = (  -1.0827573   0.8175922   0.9943689  )
       873           Si  tau( 873) = (  -0.4640388   0.9059806   0.4640388  )
       874           Si  tau( 874) = (  -0.5524272   0.9059806   0.5524272  )
       875           Si  tau( 875) = (  -0.6408155   0.9059806   0.6408155  )
       876           Si  tau( 876) = (  -0.7292039   0.9059806   0.7292039  )
       877           Si  tau( 877) = (  -0.8175922   0.9059806   0.8175922  )
       878           Si  tau( 878) = (  -0.9059806   0.9059806   0.9059806  )
       879           Si  tau( 879) = (  -0.9943689   0.9059806   0.9943689  )
       880           Si  tau( 880) = (  -1.0827573   0.9059806   1.0827573  )
       881           Si  tau( 881) = (  -0.4640388   0.9943689   0.5524272  )
       882           Si  tau( 882) = (  -0.5524272   0.9943689   0.6408155  )
       883           Si  tau( 883) = (  -0.6408155   0.9943689   0.7292039  )
       884           Si  tau( 884) = (  -0.7292039   0.9943689   0.8175922  )
       885           Si  tau( 885) = (  -0.8175922   0.9943689   0.9059806  )
       886           Si  tau( 886) = (  -0.9059806   0.9943689   0.9943689  )
       887           Si  tau( 887) = (  -0.9943689   0.9943689   1.0827573  )
       888           Si  tau( 888) = (  -1.0827573   0.9943689   1.1711456  )
       889           Si  tau( 889) = (  -0.4640388   1.0827573   0.6408155  )
       890           Si  tau( 890) = (  -0.5524272   1.0827573   0.7292039  )
       891           Si  tau( 891) = (  -0.6408155   1.0827573   0.8175922  )
       892           Si  tau( 892) = (  -0.7292039   1.0827573   0.9059806  )
       893           Si  tau( 893) = (  -0.8175922   1.0827573   0.9943689  )
       894           Si  tau( 894) = (  -0.9059806   1.0827573   1.0827573  )
       895           Si  tau( 895) = (  -0.9943689   1.0827573   1.1711456  )
       896           Si  tau( 896) = (  -1.0827573   1.0827573   1.2595340  )
       897           Si  tau( 897) = (  -0.5524272   0.5524272   0.0220971  )
       898           Si  tau( 898) = (  -0.6408155   0.5524272   0.1104854  )
       899           Si  tau( 899) = (  -0.7292039   0.5524272   0.1988738  )
       900           Si  tau( 900) = (  -0.8175922   0.5524272   0.2872621  )
       901           Si  tau( 901) = (  -0.9059806   0.5524272   0.3756505  )
       902           Si  tau( 902) = (  -0.9943689   0.5524272   0.4640388  )
       903           Si  tau( 903) = (  -1.0827573   0.5524272   0.5524272  )
       904           Si  tau( 904) = (  -1.1711456   0.5524272   0.6408155  )
       905           Si  tau( 905) = (  -0.5524272   0.6408155   0.1104854  )
       906           Si  tau( 906) = (  -0.6408155   0.6408155   0.1988738  )
       907           Si  tau( 907) = (  -0.7292039   0.6408155   0.2872621  )
       908           Si  tau( 908) = (  -0.8175922   0.6408155   0.3756505  )
       909           Si  tau( 909) = (  -0.9059806   0.6408155   0.4640388  )
       910           Si  tau( 910) = (  -0.9943689   0.6408155   0.5524272  )
[...]
     1.0000   1.0000   1.0000   1.0000   1.0000   1.0000   1.0000   1.0000
     1.0000   1.0000   1.0000   1.0000   1.0000   1.0000   1.0000   1.0000
     1.0000   1.0000   1.0000   1.0000   1.0000   1.0000   1.0000   1.0000
     1.0000   1.0000   1.0000   1.0000   1.0000   1.0000   1.0000   1.0000
     1.0000   1.0000   1.0000   1.0000   1.0000   1.0000   1.0000   1.0000
     1.0000   1.0000   1.0000   1.0000   1.0000   1.0000   1.0000   1.0000
     1.0000   1.0000   1.0000   1.0000   1.0000   1.0000   1.0000   1.0000
     1.0000   1.0000   1.0000   1.0000   1.0000   1.0000   1.0000   1.0000
     1.0000   1.0000   1.0000   1.0000   1.0000   1.0000   1.0000   1.0000
     1.0000   1.0000   1.0000   1.0000   1.0000   1.0000   1.0000   1.0000
     1.0000   1.0000   1.0000   1.0000   1.0000   1.0000   1.0000   1.0000
     1.0000   1.0000   1.0000   1.0000   1.0000   1.0000   1.0000   1.0000
     1.0000   1.0000   1.0000   1.0000   1.0000   1.0000   1.0000   1.0000
     1.0000   1.0000   1.0000   1.0000   1.0000   1.0000   1.0000   1.0000
     1.0000   1.0000   1.0000   1.0000   1.0000   1.0000   1.0000   1.0000
     1.0000   1.0000   1.0000   1.0000   1.0000   1.0000   1.0000   1.0000
     1.0000   1.0000   1.0000   1.0000   1.0000   1.0000   1.0000   1.0000
     1.0000   1.0000   1.0000   1.0000   1.0000   1.0000   1.0000   1.0000
     1.0000   1.0000   1.0000   1.0000   1.0000   1.0000   1.0000   1.0000
     1.0000   1.0000   1.0000   1.0000   1.0000   1.0000   1.0000   1.0000
     1.0000   1.0000   1.0000   1.0000   1.0000   1.0000   1.0000   1.0000
     1.0000   1.0000   1.0000   1.0000   1.0000   1.0000   1.0000   1.0000
     1.0000   1.0000   1.0000   1.0000   1.0000   1.0000   1.0000   1.0000
     1.0000   1.0000   1.0000   1.0000   1.0000   1.0000   1.0000   1.0000
     1.0000   1.0000   1.0000   1.0000   1.0000   1.0000   1.0000   1.0000
     1.0000   1.0000   1.0000   1.0000   1.0000   1.0000   1.0000   1.0000
     1.0000   1.0000   1.0000   1.0000   1.0000   1.0000   1.0000   1.0000
     1.0000   1.0000   1.0000   1.0000   1.0000   1.0000   1.0000   1.0000
     1.0000   1.0000   1.0000   1.0000   1.0000   1.0000   1.0000   1.0000
     1.0000   1.0000   1.0000   1.0000   1.0000   1.0000   1.0000   1.0000
     1.0000   1.0000   1.0000   1.0000   1.0000   1.0000   1.0000   1.0000
     1.0000   1.0000   1.0000   1.0000   1.0000   1.0000   1.0000   1.0000
     1.0000   1.0000   1.0000   1.0000   1.0000   1.0000   1.0000   1.0000
     1.0000   1.0000   1.0000   1.0000   1.0000   1.0000   1.0000   1.0000
     1.0000   1.0000   1.0000   1.0000   1.0000   1.0000   1.0000   1.0000
     1.0000   1.0000   1.0000   1.0000   1.0000   1.0000   1.0000   1.0000
     1.0000   1.0000   1.0000   1.0000   1.0000   1.0000   1.0000   1.0000
     1.0000   1.0000   1.0000   1.0000   1.0000   1.0000   1.0000   1.0000
     1.0000   1.0000   1.0000   1.0000   1.0000   1.0000   1.0000   1.0000
     1.0000   1.0000   1.0000   1.0000   1.0000   1.0000   1.0000   1.0000
     1.0000   1.0000   1.0000   1.0000   1.0000   1.0000   1.0000   1.0000
     1.0000   1.0000   1.0000   1.0000   1.0000   1.0000   1.0000   1.0000
     1.0000   1.0000   1.0000   1.0000   1.0000   1.0000   1.0000   1.0000
     1.0000   1.0000   1.0000   1.0000   1.0000   1.0000   1.0000   1.0000
     1.0000   1.0000   1.0000   1.0000   1.0000   1.0000   1.0000   1.0000
     1.0000   1.0000   1.0000   1.0000   1.0000   1.0000   1.0000   1.0000
     1.0000   1.0000   1.0000   1.0000   1.0000   1.0000   1.0000   1.0000
     1.0000   1.0000   1.0000   1.0000   1.0000   1.0000   1.0000   1.0000
     1.0000   1.0000   1.0000   1.0000   1.0000   1.0000   1.0000   1.0000
     1.0000   1.0000   1.0000   1.0000   1.0000   1.0000   1.0000   1.0000
     1.0000   1.0000   1.0000   1.0000   1.0000   1.0000   1.0000   1.0000
     1.0000   1.0000   1.0000   1.0000   1.0000   1.0000   1.0000   1.0000
     1.0000   1.0000   1.0000   1.0000   1.0000   1.0000   1.0000   1.0000
     1.0000   1.0000   1.0000   1.0000   1.0000   1.0000   1.0000   1.0000
     1.0000   1.0000   1.0000   1.0000   1.0000   1.0000   1.0000   1.0000
     1.0000   1.0000   1.0000   1.0000   1.0000   1.0000   1.0000   1.0000
     1.0000   1.0000   1.0000   1.0000   1.0000   1.0000   1.0000   1.0000
     1.0000   1.0000   1.0000   1.0000   1.0000   1.0000   1.0000   1.0000
     1.0000   1.0000   1.0000   1.0000   1.0000   1.0000   1.0000   1.0000
     1.0000   1.0000   1.0000   1.0000   1.0000   1.0000   1.0000   1.0000
     1.0000   1.0000   1.0000   1.0000   1.0000   1.0000   1.0000   1.0000
     1.0000   1.0000   1.0000   1.0000   1.0000   1.0000   1.0000   1.0000
     1.0000   1.0000   1.0000   1.0000   1.0000   1.0000   1.0000   1.0000
     1.0000   1.0000   1.0000   1.0000   1.0000   1.0000   1.0000   1.0000
     1.0000   1.0000   1.0000   1.0000   1.0000   1.0000   1.0000   1.0000
     1.0000   1.0000   1.0000   1.0000   1.0000   1.0000   1.0000   1.0000
     1.0000   1.0000   1.0000   1.0000   1.0000   1.0000   1.0000   1.0000
     1.0000   1.0000   1.0000   1.0000   1.0000   1.0000   1.0000   1.0000
     1.0000   1.0000   1.0000   1.0000   1.0000   1.0000   1.0000   1.0000
     1.0000   1.0000   1.0000   1.0000   1.0000   1.0000   1.0000   1.0000
     1.0000   1.0000   1.0000   1.0000   1.0000   1.0000   1.0000   1.0000
     1.0000   1.0000   1.0000   1.0000   1.0000   1.0000   1.0000   1.0000
     1.0000   1.0000   1.0000   1.0000   1.0000   1.0000   1.0000   1.0000
     1.0000   1.0000   1.0000   1.0000   1.0000   1.0000   1.0000   1.0000
     1.0000   1.0000   1.0000   1.0000   1.0000   1.0000   1.0000   1.0000
     1.0000   1.0000   1.0000   1.0000   1.0000   1.0000   1.0000   1.0000
     1.0000   1.0000   1.0000   1.0000   1.0000   1.0000   1.0000   1.0000
     1.0000   1.0000   1.0000   1.0000   1.0000   1.0000   1.0000   1.0000
     1.0000   1.0000   1.0000   1.0000   1.0000   1.0000   1.0000   1.0000
     1.0000   1.0000   1.0000   1.0000   1.0000   1.0000   1.0000   1.0000
     1.0000   1.0000   1.0000   1.0000   1.0000   1.0000   1.0000   1.0000
     1.0000   1.0000   1.0000   1.0000   1.0000   1.0000   1.0000   1.0000
     1.0000   1.0000   1.0000   1.0000   1.0000   1.0000   1.0000   1.0000
     1.0000   1.0000   1.0000   1.0000   1.0000   1.0000   1.0000   1.0000
     1.0000   1.0000   1.0000   1.0000   1.0000   1.0000   1.0000   1.0000
     1.0000   1.0000   1.0000   1.0000   1.0000   1.0000   1.0000   1.0000
     1.0000   1.0000   1.0000   1.0000   1.0000   1.0000   1.0000   1.0000
     1.0000   1.0000   1.0000   1.0000   1.0000   1.0000   1.0000   1.0000
     1.0000   1.0000   1.0000   1.0000   1.0000   1.0000   1.0000   1.0000
     1.0000   1.0000   1.0000   1.0000   1.0000   1.0000   1.0000   1.0000
     1.0000   1.0000   1.0000   1.0000   1.0000   1.0000   1.0000   1.0000
     1.0000   1.0000   1.0000   1.0000   1.0000   1.0000   1.0000   1.0000
     1.0000   1.0000   1.0000   1.0000   1.0000   1.0000   1.0000   1.0000
     1.0000   1.0000   1.0000   1.0000   1.0000   1.0000   1.0000   1.0000
     1.0000   1.0000   1.0000   1.0000   1.0000   1.0000   1.0000   1.0000
     1.0000   1.0000   1.0000   1.0000   1.0000   1.0000   1.0000   1.0000
     1.0000   1.0000   1.0000   1.0000   1.0000   1.0000   1.0000   1.0000
     1.0000   1.0000   1.0000   1.0000   1.0000   1.0000   1.0000   1.0000
     1.0000   1.0000   1.0000   1.0000   1.0000   1.0000   1.0000   1.0000
     1.0000   1.0000   1.0000   1.0000   1.0000   1.0000   1.0000   1.0000
     1.0000   1.0000   1.0000   1.0000   1.0000   1.0000   1.0000   1.0000
     1.0000   1.0000   1.0000   1.0000   1.0000   1.0000   1.0000   1.0000
     1.0000   1.0000   1.0000   1.0000   1.0000   1.0000   1.0000   1.0000
     1.0000   1.0000   1.0000   1.0000   1.0000   1.0000   1.0000   1.0000
     1.0000   1.0000   1.0000   1.0000   1.0000   1.0000   1.0000   1.0000
     1.0000   1.0000   1.0000   1.0000   1.0000   1.0000   1.0000   1.0000
     1.0000   1.0000   1.0000   1.0000   1.0000   1.0000   1.0000   1.0000
     1.0000   1.0000   1.0000   1.0000   1.0000   1.0000   1.0000   1.0000
     1.0000   1.0000   1.0000   1.0000   1.0000   1.0000   1.0000   1.0000
     1.0000   1.0000   1.0000   1.0000   1.0000   1.0000   1.0000   1.0000
     1.0000   1.0000   1.0000   1.0000   1.0000   1.0000   1.0000   1.0000
     1.0000   1.0000   1.0000   1.0000   1.0000   1.0000   1.0000   1.0000
     1.0000   1.0000   1.0000   1.0000   1.0000   1.0000   1.0000   1.0000
     1.0000   1.0000   1.0000   1.0000   1.0000   1.0000   1.0000   1.0000
     1.0000   1.0000   1.0000   1.0000   1.0000   1.0000   1.0000   1.0000
     1.0000   1.0000   1.0000   1.0000   1.0000   1.0000   1.0000   1.0000
     1.0000   1.0000   1.0000   1.0000   1.0000   1.0000   1.0000   1.0000
     1.0000   1.0000   1.0000   1.0000   1.0000   1.0000   1.0000   1.0000
     1.0000   1.0000   1.0000   1.0000   1.0000   1.0000   1.0000   1.0000
     1.0000   1.0000   1.0000   1.0000   1.0000   1.0000   1.0000   1.0000
     1.0000   1.0000   1.0000   1.0000   1.0000   1.0000   1.0000   1.0000
     1.0000   1.0000   1.0000   1.0000   1.0000   1.0000   1.0000   1.0000
     1.0000   1.0000   1.0000   1.0000   1.0000   1.0000   1.0000   1.0000
     1.0000   1.0000   1.0000   1.0000   1.0000   1.0000   1.0000   1.0000
     1.0000   1.0000   1.0000   1.0000   1.0000   1.0000   1.0000   1.0000
     1.0000   1.0000   1.0000   1.0000   1.0000   1.0000   1.0000   1.0000
     1.0000   1.0000   1.0000   1.0000   1.0000   1.0000   1.0000   1.0000
     1.0000   1.0000   1.0000   1.0000   1.0000   1.0000   1.0000   1.0000
     1.0000   1.0000   1.0000   1.0000   1.0000   1.0000   1.0000   1.0000
     1.0000   1.0000   1.0000   1.0000   1.0000   1.0000   1.0000   1.0000
     1.0000   1.0000   1.0000   1.0000   1.0000   1.0000   1.0000   1.0000
     1.0000   1.0000   1.0000   1.0000   1.0000   1.0000   1.0000   1.0000
     1.0000   1.0000   1.0000   1.0000   1.0000   1.0000   1.0000   1.0000
     1.0000   1.0000   1.0000   1.0000   1.0000   1.0000   1.0000   1.0000
     1.0000   1.0000   1.0000   1.0000   1.0000   1.0000   1.0000   1.0000
     1.0000   1.0000   1.0000   1.0000   1.0000   1.0000   1.0000   1.0000
     1.0000   1.0000   1.0000   1.0000   1.0000   1.0000   1.0000   1.0000
     1.0000   1.0000   1.0000   1.0000   1.0000   1.0000   1.0000   1.0000
     1.0000   1.0000   1.0000   1.0000   1.0000   1.0000   1.0000   1.0000
     1.0000   1.0000   1.0000   1.0000   1.0000   1.0000   1.0000   1.0000
     1.0000   1.0000   1.0000   1.0000   1.0000   1.0000   1.0000   1.0000
     1.0000   1.0000   1.0000   1.0000   1.0000   1.0000   1.0000   1.0000
     1.0000   1.0000   1.0000   1.0000   1.0000   1.0000   1.0000   1.0000
     1.0000   1.0000   1.0000   1.0000   1.0000   1.0000   1.0000   1.0000
     1.0000   1.0000   1.0000   1.0000   1.0000   1.0000   1.0000   1.0000
     1.0000   1.0000   1.0000   1.0000   1.0000   1.0000   1.0000   1.0000
     1.0000   1.0000   1.0000   1.0000   1.0000   1.0000   1.0000   1.0000
     1.0000   1.0000   1.0000   1.0000   1.0000   1.0000   1.0000   1.0000
     1.0000   1.0000   1.0000   1.0000   1.0000   1.0000   1.0000   1.0000
     1.0000   1.0000   1.0000   1.0000   1.0000   1.0000   1.0000   1.0000
     1.0000   1.0000   1.0000   1.0000   1.0000   1.0000   1.0000   1.0000
     1.0000   1.0000   1.0000   1.0000   1.0000   1.0000   1.0000   1.0000
     1.0000   1.0000   1.0000   1.0000   1.0000   1.0000   1.0000   1.0000
     1.0000   1.0000   1.0000   1.0000   1.0000   1.0000   1.0000   1.0000
     1.0000   1.0000   1.0000   1.0000   1.0000   1.0000   1.0000   1.0000
     1.0000   1.0000   1.0000   1.0000   1.0000   1.0000   1.0000   1.0000
     1.0000   1.0000   1.0000   1.0000   1.0000   1.0000   1.0000   1.0000
     1.0000   1.0000   1.0000   1.0000   1.0000   1.0000   1.0000   1.0000
     1.0000   1.0000   1.0000   1.0000   1.0000   1.0000   1.0000   1.0000
     1.0000   1.0000   1.0000   1.0000   1.0000   1.0000   1.0000   1.0000
     1.0000   1.0000   1.0000   1.0000   1.0000   1.0000   1.0000   1.0000
     1.0000   1.0000   1.0000   1.0000   1.0000   1.0000   1.0000   1.0000
     1.0000   1.0000   1.0000   1.0000   1.0000   1.0000   1.0000   1.0000
     1.0000   1.0000   1.0000   1.0000   1.0000   1.0000   1.0000   1.0000
     1.0000   1.0000   1.0000   1.0000   1.0000   1.0000   1.0000   1.0000
     1.0000   1.0000   1.0000   1.0000   1.0000   1.0000   1.0000   1.0000
     1.0000   1.0000   1.0000   1.0000   1.0000   1.0000   1.0000   1.0000
     1.0000   1.0000   1.0000   1.0000   1.0000   1.0000   1.0000   1.0000
     1.0000   1.0000   1.0000   1.0000   1.0000   1.0000   1.0000   1.0000
     1.0000   1.0000   1.0000   1.0000   1.0000   1.0000   1.0000   1.0000
     1.0000   1.0000   1.0000   1.0000   1.0000   1.0000   1.0000   1.0000
     1.0000   1.0000   1.0000   1.0000   1.0000   1.0000   1.0000   1.0000
     1.0000   1.0000   1.0000   1.0000   1.0000   1.0000   1.0000   1.0000
     1.0000   1.0000   1.0000   1.0000   1.0000   1.0000   1.0000   1.0000
     1.0000   1.0000   1.0000   1.0000   1.0000   1.0000   1.0000   1.0000
     1.0000   1.0000   1.0000   1.0000   1.0000   1.0000   1.0000   1.0000
     1.0000   1.0000   1.0000   1.0000   1.0000   1.0000   1.0000   1.0000
     1.0000   1.0000   1.0000   1.0000   1.0000   1.0000   1.0000   1.0000
     1.0000   1.0000   1.0000   1.0000   1.0000   1.0000   1.0000   1.0000
     1.0000   1.0000   1.0000   1.0000   1.0000   1.0000   1.0000   1.0000
     1.0000   1.0000   1.0000   1.0000   1.0000   1.0000   1.0000   1.0000
     1.0000   1.0000   1.0000   1.0000   1.0000   1.0000   1.0000   1.0000
     1.0000   1.0000   1.0000   1.0000   1.0000   1.0000   1.0000   1.0000
     1.0000   1.0000   1.0000   1.0000   1.0000   1.0000   1.0000   1.0000
     1.0000   1.0000   1.0000   1.0000   1.0000   1.0000   1.0000   1.0000
     1.0000   1.0000   1.0000   1.0000   1.0000   1.0000   1.0000   1.0000
     1.0000   1.0000   1.0000   1.0000   1.0000   1.0000   1.0000   1.0000
     1.0000   1.0000   1.0000   1.0000   1.0000   1.0000   1.0000   1.0000
     1.0000   1.0000   1.0000   1.0000   1.0000   1.0000   1.0000   1.0000
     1.0000   1.0000   1.0000   1.0000   1.0000   1.0000   1.0000   1.0000
     1.0000   1.0000   1.0000   1.0000   1.0000   1.0000   1.0000   1.0000
     1.0000   1.0000   1.0000   1.0000   1.0000   1.0000   1.0000   1.0000
     1.0000   1.0000   1.0000   1.0000   1.0000   1.0000   1.0000   1.0000
     1.0000   1.0000   1.0000   1.0000   1.0000   1.0000   1.0000   1.0000
     1.0000   1.0000   1.0000   1.0000   1.0000   1.0000   1.0000   1.0000
     1.0000   1.0000   1.0000   1.0000   1.0000   1.0000   1.0000   1.0000
     1.0000   1.0000   1.0000   1.0000   1.0000   1.0000   1.0000   1.0000
     1.0000   1.0000   1.0000   1.0000   1.0000   1.0000   1.0000   1.0000
     1.0000   1.0000   1.0000   1.0000   1.0000   1.0000   1.0000   1.0000
     1.0000   1.0000   1.0000   1.0000   1.0000   1.0000   1.0000   1.0000
     1.0000   1.0000   1.0000   1.0000   1.0000   1.0000   1.0000   1.0000
     1.0000   1.0000   1.0000   1.0000   1.0000   1.0000   1.0000   1.0000
     1.0000   1.0000   1.0000   1.0000   1.0000   1.0000   1.0000   1.0000
     1.0000   1.0000   1.0000   1.0000   1.0000   1.0000   1.0000   1.0000
     1.0000   1.0000   1.0000   1.0000   1.0000   1.0000   1.0000   1.0000
     1.0000   1.0000   1.0000   1.0000   1.0000   1.0000   1.0000   1.0000
     1.0000   1.0000   1.0000   1.0000   1.0000   1.0000   1.0000   1.0000
     1.0000   1.0000   1.0000   1.0000   1.0000   1.0000   1.0000   1.0000

     highest occupied level (ev):     6.4310

!    total energy              =   -8070.44690608 Ry
     estimated scf accuracy    <          7.5E-09 Ry

     The total energy is the sum of the following terms:
     one-electron contribution =    2502.02877031 Ry
     hartree contribution      =     555.61403424 Ry
     xc contribution           =   -2475.41332286 Ry
     ewald contribution        =   -8652.67638777 Ry

     convergence has been achieved in  17 iterations

     Writing all to output data dir ./Si-100.save/
 
     init_run     :     69.22s CPU     85.61s WALL (       1 calls)
     electrons    :   7951.99s CPU   9408.65s WALL (       1 calls)

     Called by init_run:
     wfcinit      :     67.29s CPU     83.59s WALL (       1 calls)
     wfcinit:wfcr :     66.86s CPU     82.69s WALL (       1 calls)
     potinit      :      0.13s CPU      0.15s WALL (       1 calls)
     hinit0       :      0.96s CPU      0.99s WALL (       1 calls)

     Called by electrons:
     c_bands      :   7760.48s CPU   9146.61s WALL (      17 calls)
     sum_band     :    188.83s CPU    259.04s WALL (      17 calls)
     v_of_rho     :      2.16s CPU      2.36s WALL (      18 calls)
     v_h          :      0.20s CPU      0.22s WALL (      18 calls)
     v_xc         :      1.97s CPU      2.14s WALL (      18 calls)
     mix_rho      :      0.55s CPU      0.68s WALL (      17 calls)

     Called by c_bands:
     init_us_2    :      8.88s CPU      9.16s WALL (      35 calls)
     init_us_2:cp :      8.88s CPU      9.16s WALL (      35 calls)
     cegterg      :   7708.55s CPU   9068.52s WALL (      18 calls)

     Called by sum_band:
     sum_band:wei :      0.00s CPU      0.00s WALL (      17 calls)
     sum_band:loo :    188.29s CPU    258.33s WALL (      17 calls)
     sum_band:buf :      0.00s CPU      0.00s WALL (      17 calls)
     sum_band:ini :      4.34s CPU      4.34s WALL (      17 calls)

     Called by *egterg:
     cdiaghg      :   2600.76s CPU   2606.11s WALL (     106 calls)
     cegterg:over :    891.46s CPU   1204.73s WALL (      89 calls)
     cegterg:upda :    248.68s CPU    250.85s WALL (      89 calls)
     cegterg:last :    456.79s CPU    457.83s WALL (      54 calls)
     h_psi        :   3068.19s CPU   3825.78s WALL (     108 calls)
     g_psi        :      2.03s CPU      2.03s WALL (      89 calls)

     Called by h_psi:
     h_psi:calbec :   1031.62s CPU   1251.09s WALL (     108 calls)
     vloc_psi     :   1299.03s CPU   1824.38s WALL (     108 calls)
     vloc_psi:tg_ :     16.86s CPU     17.94s WALL (     108 calls)
     add_vuspsi   :    735.15s CPU    745.42s WALL (     108 calls)

     General routines
     calbec       :   1031.62s CPU   1251.09s WALL (     108 calls)
     fft          :      1.61s CPU      1.80s WALL (     179 calls)
     ffts         :      0.23s CPU      0.35s WALL (      17 calls)
     fftw         :   1205.42s CPU   1785.77s WALL (    6187 calls)
 
     Parallel routines
     fft_scatt_xy :    233.33s CPU    328.71s WALL (    6383 calls)
     fft_scatt_yz :     89.07s CPU    148.67s WALL (    6383 calls)
     fft_scatt_tg :     73.55s CPU    124.84s WALL (    6187 calls)
 
     PWSCF        :      2h13m CPU      2h38m WALL

 
   This run was terminated on:   4:33:57  18Sep2024            

=------------------------------------------------------------------------------=
   JOB DONE.
=------------------------------------------------------------------------------=
	Command being timed: "mpirun -n 48 /home/agrimsharma/codes/QuantumEspresso_without_scalapack/q-e-qe-7.2/bin/pw.x -nb 1 -ni 1 -nk 1 -nt 48 -nd 1 -i SiSupercell8x8x8-100.scf.in"
	User time (seconds): 402304.01
	System time (seconds): 53372.19
	Percent of CPU this job got: 4797%
	Elapsed (wall clock) time (h:mm:ss or m:ss): 2:38:17
	Average shared text size (kbytes): 0
	Average unshared data size (kbytes): 0
	Average stack size (kbytes): 0
	Average total size (kbytes): 0
	Maximum resident set size (kbytes): 3882200
	Average resident set size (kbytes): 0
	Major (requiring I/O) page faults: 800
	Minor (reclaiming a frame) page faults: 8989304751
	Voluntary context switches: 6385
	Involuntary context switches: 1289825
	Swaps: 0
	File system inputs: 8
	File system outputs: 1744
	Socket messages sent: 0
	Socket messages received: 0
	Signals delivered: 0
	Page size (bytes): 4096
	Exit status: 0
